<VTKFile type="PolyData">
<PolyData>
<Piece NumberOfPoints="1945" NumberOfVerts="1945" NumberOfLines="0" NumberOfStrips="0" NumberOfPolys="0">
<PointData>
<DataArray type="Float64" Name="Pressure" format="ascii">
 27924.100279 30536.071141 26330.090906 26995.314204 23879.872983 23789.026817 26260.067754 26113.280460 27323.699753 26458.816902 26690.378349 25985.029084 26486.486985 27019.344967 23750.928688 25176.242599 25361.776239 26879.178037 26097.981134 27908.861279 25229.845184 25763.301671 25404.696494 26517.970289 25082.391643 25908.733236 26501.371908 27430.006023 24449.967315 25025.714934 24749.778364 25929.289764 25788.531369 27699.738787 25324.763941 25582.553683 26423.818342 28485.878805 23957.208408 24151.632919 27647.097090 29728.792046 23290.952057 24782.992554 26496.536286 29162.128708 26802.074115 28889.174596 26992.153010 26919.812652 27799.733842 29500.635949 25069.254521 25995.115310 25215.990614 23805.548393 30226.421668 30634.375246 27846.389517 25950.344951 34079.580869 33205.011554 26054.400590 23080.407468 31440.206120 28856.606064 23967.928225 23334.826495 25056.122599 26428.962231 19761.773404 22038.025369 27742.616537 25413.359888 31454.064096 28567.095900 25207.312576 23751.442330 26412.266826 27880.640641 22030.628762 25146.815495 25489.166998 24454.195127 28453.929726 25183.796323 29488.514616 27340.176121 23503.750300 20600.130701 26043.100665 27123.859692 19415.933189 21769.284779 24354.471727 24666.318373 21070.560419 22294.038730 23361.700819 25420.622438 23437.366298 23082.430410 24003.407730 26062.664206 15329.769477 17875.511315 18738.221771 21670.347772 18027.484619 20235.059390 17711.174763 18705.045281 17065.327595 19348.991230 17711.843652 17245.123517 21292.602143 18265.519732 20538.894860 17539.307950 20268.456115 20431.008989 16078.907911 15828.909418 20898.631666 19783.494142 16150.663780 15945.603063 17959.494392 17305.238888 18620.189824 16459.727475 18255.347256 16254.618198 20462.200893 18557.596420 16552.738433 16230.323774 18055.398097 17638.862708 19881.891774 17859.761017 18813.751548 16679.092432 20432.326851 19246.337907 18700.606650 20778.202437 17136.521045 17608.403466 19728.285215 20105.080266 16852.410872 16413.243798 17363.552655 17501.846794 17124.318296 17158.690580 18548.626490 18884.287634 16295.634932 17787.000366 16235.763058 17509.743482 14220.311857 16056.405708 14349.238929 15183.533664 16177.111354 17202.719030 16909.769658 16521.017547 18398.648886 18178.404327 18234.255507 17977.324308 18300.324638 17277.826301 18122.660457 18236.713640 16689.692172 16407.114361 16315.593853 17134.962363 15172.127293 17312.459933 15083.909371 16287.990559 16655.076586 16852.791592 15415.575415 15293.798553 16253.135919 16578.865991 16812.780422 16528.245252 16793.747680 15920.467497 17336.454409 16808.095495 15927.053830 17175.808099 15936.003917 18301.719759 16247.699318 16122.820987 19521.880881 19332.671894 19762.432222 20928.555944 25667.379174 23514.779495 22090.112270 19713.982802 18233.511664 15973.298606 14412.408053 13247.431321 11976.742295 10668.819575 9605.900519 8390.811024 6213.491331 2427.250900 -816.115504 -1504.850983 -2372.272672 -3380.030016 -4125.898218 -4662.935927 -5035.128268 -5275.455772 -5410.196594 -5460.327475 -5442.475582 -5369.897638 -5253.356888 -5101.784923 -4922.726109 -4722.619947 -4506.982855 -4280.534833 -4047.297901 -3810.679640 -3573.547439 -3338.295371 -3106.904313 -2880.995548 -2661.878166 -2450.590628 -2247.936961 -2054.518070 -1870.758732 -1696.930815 -1533.173371 -1379.510444 -1235.868938 -1102.107994 -978.128405 -864.460777 -766.108633 24469.789163 24938.673971 24471.688476 21711.194813 20575.317872 17443.183982 17400.464955 15318.327575 13705.285278 13052.248147 11648.630458 12960.192832 9067.367556 6212.696624 3828.067737 -189.080311 -2199.166823 -3305.996813 -4079.859298 -4628.694901 -5007.993414 -5253.633143 -5392.615943 -5446.162680 -5431.072138 -5360.754197 -5246.095103 -5096.113741 -4918.412005 -4719.467044 -4504.821556 -4279.215956 -4046.689698 -3810.666064 -3574.026795 -3339.179041 -3108.115460 -2882.467828 -2663.554476 -2452.421927 -2249.881177 -2056.539123 -1872.825664 -1699.017023 -1535.255823 -1381.568169 -1237.876462 -1103.997397 -979.557731 -863.420741 -750.030911 16040.663409 15541.551747 15403.629877 12261.943603 10174.088601 9796.457684 8323.508286 6201.190214 5767.231144 4405.780162 2381.911151 1460.824768 817.614578 364.249833 71.072208 -115.349360 -234.437679 -314.975412 -377.783513 -437.117352 -501.472501 -574.428153 -655.729436 -742.511524 -830.476750 -914.874926 -991.218255 -1055.732675 -1105.589038 -1138.972255 -1155.043598 -1153.840151 -1136.142273 -1103.328699 -1057.230687 -999.991574 -933.935404 -861.447192 -784.866961 -706.399562 -628.041949 -551.529056 -478.298636 -409.474529 -345.866913 -287.987252 -236.074748 -190.128706 -149.928482 -114.942070 -83.582133 17015.930420 14807.374530 13794.078513 11637.804318 9844.454629 8659.047951 7329.064719 6078.393179 5003.737164 3690.561973 2492.667197 1545.049203 861.027446 397.478266 94.209696 -100.270959 -225.426806 -310.420625 -376.347698 -437.635973 -502.944420 -576.053021 -656.937738 -742.963360 -830.031166 -913.542822 -989.112252 -1053.022929 -1102.469061 -1135.635130 -1151.667033 -1150.578106 -1133.121027 -1100.645688 -1054.955003 -998.165481 -932.576533 -860.551271 -784.410984 -706.345313 -628.339750 -552.121579 -479.124614 -410.472180 -346.976962 -289.155589 -237.255619 -191.294313 -151.121432 -116.596112 -88.489168 -696.138401 -663.960970 -670.520044 -639.935605 -605.294972 -588.235646 -525.668158 -523.600974 -459.654620 -459.884766 -401.345569 -401.917645 -349.433315 -350.018791 -303.289199 -303.835555 -262.411080 -262.911090 -226.331108 -226.785312 -194.603766 -195.014207 -166.806172 -167.175306 -142.539801 -142.870264 -121.431884 -121.726404 -103.136242 -103.397578 -87.333576 -87.564473 -73.731294 -73.934440 -62.062936 -62.240930 -52.087275 -52.242600 -43.587164 -43.722171 -36.368205 -36.485094 -30.257271 -30.358087 -25.100966 -25.187592 -20.764036 -20.838194 -17.127795 -17.191049 -14.088570 -14.142329 -11.556206 -11.601735 -9.452649 -9.491073 -7.710604 -7.742921 -6.272293 -6.299382 -5.088312 -5.110942 -4.116581 -4.135423 -3.321398 -3.337036 -2.672590 -2.685527 -2.144749 -2.155417 -1.716559 -1.725328 -1.370201 -1.377386 -1.090833 -1.096702 -0.866135 -0.870915 -0.685916 -0.689797 -0.541775 -0.544917 -0.426810 -0.429345 -0.335369 -0.337408 -0.262837 -0.264473 -0.205462 -0.206771 -0.160199 -0.161243 -0.124589 -0.125419 -0.096647 -0.097305 -0.074782 -0.075302 -0.057717 -0.058128 -0.044434 -0.044757 -0.034122 -0.034375 -0.026138 -0.026335 -0.019971 -0.020125 -0.015221 -0.015341 -0.011571 -0.011664 -0.008773 -0.008845 -0.006632 -0.006687 -0.004996 -0.005038 -0.003746 -0.003778 -0.002787 -0.002811 -0.002045 -0.002063 -0.001459 -0.001471 -0.000975 -0.000982 -0.000544 -0.000547 -0.000115 -0.000112 0.000371 0.000381 0.000992 0.001011 0.001850 0.001882 0.003093 0.003143 0.004927 0.005003 0.007652 0.007765 0.011689 0.011854 0.017632 0.017870 0.026303 0.026640 0.038820 0.039291 0.056685 0.057335 0.081871 0.082753 0.116916 0.118093 0.165009 0.166550 0.230040 0.232016 0.316595 0.319074 0.429857 0.432885 0.575342 0.578928 0.758422 0.762510 0.983535 0.987965 1.252993 1.257456 1.565278 1.569257 1.912718 1.915419 2.278443 2.278717 2.632558 2.628819 2.927479 2.917623 3.092493 3.073823 3.027646 2.996818 2.597189 2.550186 1.622948 1.555111 -0.121906 -0.215763 -2.918109 -3.043317 -7.104271 -7.264623 -13.081255 -13.269843 -21.332602 -21.476128 -32.550602 -32.184494 -48.620349 -44.621215 -63.335163 -55.648175 -69.752846 -61.504961 24093.486940 25511.514805 21536.512622 24297.662689 24212.046122 20725.166282 22022.083661 22327.461338 21562.361920 18973.456240 21512.661876 23605.544309 23368.881959 19061.528655 24991.598500 15682.133315 12337.733279 20082.616908 17191.571071 17334.750562 19050.607794 18283.069985 25803.934546 23832.350195 26116.187282 24028.033615 22099.555696 23523.740379 16082.211813 18196.788032 16191.458966 4382.853227 22420.791655 22422.103973 25934.736013 23602.969154 13621.601332 20838.449554 21925.316595 19177.394752 11314.474854 20155.583810 11402.538223 22145.043272 19003.816769 10677.524361 27006.653624 27217.644670 25169.457202 19017.312511 23674.533814 20791.657124 13040.782230 17369.966687 18366.840626 19851.188307 23065.153548 25873.182625 25493.884893 26401.094013 22900.710794 24874.093154 23698.951569 21765.794012 18462.964966 25449.439376 26896.913662 21892.524504 27209.161358 28073.889177 27943.765303 23183.081277 23392.003591 22035.406607 21313.846340 20578.645671 11031.793518 26525.055609 26995.579038 27291.131243 23536.123828 26114.547620 23355.057487 18593.697543 23871.712349 23772.378469 15675.570534 19230.515815 25450.357741 26727.556912 20854.677350 28233.380334 23592.701075 20179.133716 18463.149278 23561.413166 22576.483069 14485.813129 18725.460522 26828.603864 26895.008365 21684.573100 23600.074831 14998.913921 26957.468599 16776.477713 22950.632200 24589.127365 10781.385864 15010.224143 26784.748016 25013.282788 26485.364779 7862.024423 28543.700278 16242.172035 21412.602753 12539.746544 14586.863454 12056.174307 9118.763922 25243.317977 27602.989598 15586.340464 24491.970307 11914.060991 21408.633594 13797.117582 16302.689172 18324.497414 19793.075785 16520.574527 28707.962503 26049.632229 24784.031649 20167.028815 17150.837785 21256.111293 20358.593252 13405.072249 24950.932014 23456.703574 18595.116874 28230.125407 26622.342265 25084.276877 27530.165148 24614.755816 22867.616240 21861.277194 19477.833837 22703.141774 14772.444659 15375.951363 27169.935181 25734.247243 27767.080932 27103.080616 20252.931786 26386.258897 17642.956496 15339.938829 9787.048888 10998.781509 12163.114224 27937.352906 24376.878128 22415.496262 19789.330276 20630.059566 15121.823288 16865.141923 11084.531512 7058.754061 9464.066090 1868.535036 26003.715072 29393.034484 25280.347935 27505.325579 23953.936023 22199.924885 16392.189259 20657.962713 12385.956944 4588.731647 2981.812045 26288.743108 20610.356119 25447.903636 19356.347628 11966.546654 8710.890891 8271.609718 10606.128174 7475.383546 106.480707 7259.021670 25142.715162 25477.019983 23887.298319 24186.624283 20265.031117 12142.325500 15583.463183 7823.510334 11339.961047 5183.137520 3973.493119 27937.916045 24061.086327 23194.411375 24989.639884 16107.349548 11666.743549 12785.276109 7707.879264 6003.335300 1752.942096 3847.663386 25125.012403 24662.699004 26425.071099 22861.781755 16682.877798 10185.891504 9167.846275 7483.426134 6379.420760 4710.957732 1570.810940 24076.526394 23703.682193 19929.411517 17317.356237 18956.778246 6762.242656 7061.659869 6016.568901 6451.016710 3370.209108 2113.051179 25342.018885 22570.758009 26691.919778 16625.412683 17008.640783 16540.483643 4905.217827 9860.567207 8324.354113 5986.333437 1902.445250 24371.720262 26543.251089 21443.831395 19611.565239 7994.006913 14311.911201 15688.663228 16495.721974 10033.148743 5572.047509 801.213590 22738.060084 24056.713575 20725.614209 21263.800068 16046.497610 16920.483755 11054.999097 2390.865619 14024.014654 4228.253708 2205.065248 25521.108847 25035.965400 22813.122349 24651.004587 20866.542196 13009.851482 13985.444882 9654.462099 10986.867265 10524.195917 2760.797724 28035.215110 22582.421737 20238.336625 17292.032680 22672.363520 8045.894187 13070.290554 6545.530660 7717.532203 4832.016330 2848.579331 21514.816473 19049.878616 17202.965583 20591.562689 13577.365449 17303.424739 11659.668345 15791.483623 4943.979163 3836.866179 8458.570008 24580.584127 24686.083730 19074.657983 22036.681328 18817.497490 14094.950897 5588.828422 11331.826345 7746.573057 6502.819965 1208.452302 27605.567024 23749.571759 20104.187398 16129.015593 16126.452366 10819.011027 10358.080256 7547.233445 7103.883381 9466.525787 2492.597169 25849.717631 21064.572424 27366.329164 19735.489541 17977.330382 9262.513331 11712.543278 11502.247846 7444.179077 7080.644082 3339.632864 26842.402920 23594.322985 21129.606175 22025.463102 21412.142134 15610.532922 12862.562682 10071.100117 10432.668099 8538.314027 3736.996873 23299.534630 13968.044266 22180.149269 18818.167483 22215.025766 16126.879770 9117.334037 11850.794783 4419.328292 6226.425703 5009.764291 26222.365739 24943.666614 23610.582709 18732.846517 17368.123651 13580.780958 12668.060166 10607.323377 5230.418646 4820.727505 4332.741914 24108.928793 23345.967082 21736.338870 18347.256137 21146.072795 13168.456053 14971.771122 6589.117398 5085.135966 2968.354807 4940.627577 27015.343570 29638.125475 23653.805990 22061.735357 18468.812361 16888.151156 13510.698116 13703.425602 4401.304770 5036.729104 3612.098815 27364.134240 25367.598534 17280.189449 20571.939945 24700.120295 15673.394870 16866.830705 13696.379202 9077.492294 5888.432381 5849.868955 23126.895047 23608.398727 23682.885567 19670.994357 16953.828121 10805.679491 11896.216451 11444.109438 17053.476739 3989.733397 6807.002981 23944.769581 26107.846801 22981.426546 14849.936355 17648.372940 8415.128057 9287.785940 4454.241261 8738.510736 5298.257813 4010.860760 25239.125909 21170.604240 24787.306707 18556.901555 6371.643431 10852.130571 6078.409573 5841.951345 2486.738570 8482.092515 807.078662 25175.086651 22512.342357 21303.846823 21757.363626 17183.193732 11897.859865 7741.619283 6415.049250 10025.197970 3004.532115 3746.309701 22554.009776 24446.820437 20141.750492 15217.067768 14159.629345 13013.389315 15676.267481 6808.808453 4295.652257 4176.244065 2367.964779 20145.430692 23978.090936 21868.748481 15829.839967 16886.592976 11377.990989 10955.219550 9309.650864 8756.808544 4646.550178 4823.647944 21845.276707 21411.364192 21070.272301 24722.978388 14196.360501 11882.696181 8262.106237 9798.301256 5922.446524 4788.307674 326.382800 25857.900096 20910.429597 20916.618182 11649.757392 14919.146857 12960.857899 9106.940078 14318.191914 8875.230467 6438.452714 3262.670430 21328.969467 24631.619478 23226.388952 7077.572911 9040.677157 7565.551304 10387.558253 7121.123000 4606.853760 6306.816281 255.906416 27035.460782 19800.907207 16245.590254 23600.261792 12490.011129 14636.106122 13547.016952 4387.956686 5447.837952 9286.920200 3328.934132 23567.639877 25809.209858 22139.713244 19655.452622 13156.447660 14181.635124 5771.514407 16706.302446 6012.933686 2231.055216 3561.331577 26829.038840 26951.916820 21394.168809 16254.049117 12927.229378 17905.150507 17716.440850 4921.238805 8708.549516 4241.711637 2806.718657 23040.966819 21443.612494 22879.836277 16494.914145 16659.044633 13396.414991 16100.409289 8122.062230 11303.154436 5573.844555 2566.271335 23060.892323 18961.343735 24119.937205 18909.376247 12400.762539 14859.363513 12164.001733 11866.997704 9811.817571 5785.539165 2001.753347 23556.044531 21954.321326 19242.717076 17627.689376 20197.688537 14367.174615 13620.916178 10739.664204 6416.476805 3323.638445 2556.825725 26077.436300 25607.501432 19792.691183 18512.498041 16609.354698 12594.799504 10532.383167 10719.494205 13095.931255 5039.435202 5277.629948 24029.725752 22181.353324 19033.627045 19148.828748 19168.753741 16243.909187 9484.821340 8900.154191 4675.387297 5820.293825 3515.698021 21434.873368 22564.560846 21489.554037 19437.533571 14802.665209 6984.362964 8566.475526 7323.274506 4819.029002 4511.874610 6712.056459 22873.053492 20826.111862 21158.389224 19919.395289 10974.762277 10885.706387 7224.802838 5871.471150 4232.393850 3949.007655 3866.922245 20708.976555 24031.300588 19574.082226 15193.431655 10229.366247 8639.706187 9846.361141 6175.428116 7363.915277 3126.117108 4457.130239 24602.563315 22311.834104 17464.719493 8211.773757 15215.622691 11013.205054 8570.004221 8032.459419 8413.636950 5058.065805 3057.587033 19563.123356 19151.051201 20176.764068 16296.981529 13267.479417 11702.290866 10315.357806 14546.188347 6525.258908 3696.434530 3939.520371 20793.601791 20601.904024 19075.061960 15975.053583 12873.762844 10491.909679 10260.251965 10718.135921 4244.884055 3406.876945 3723.771370 16932.460412 16869.193368 17641.342869 15655.137630 14788.377918 12710.723463 8399.412179 3911.916735 5239.704072 4042.987964 2264.981049 17215.040813 16878.934985 15884.147193 16332.928083 15489.997222 9183.651464 4305.072824 4817.995289 5874.193930 3536.842539 2038.293144 20261.785918 18785.278065 17049.529456 14783.183522 11548.126783 11807.009726 14559.274347 6310.433976 5025.101070 2829.334492 4877.717440 18236.822782 18042.932137 15396.906952 14763.046297 13918.822587 12508.609642 4979.953038 6107.786409 3652.923727 4086.695529 3654.101585 14992.791418 17927.521362 17352.798858 16819.604122 11004.148238 15074.072110 11052.989100 5955.548951 8218.913125 3794.929140 5418.227744 15254.553303 15903.422591 15076.917034 15348.141076 9567.336440 10192.694437 9274.618496 5424.252841 5967.932724 4085.229912 3320.353256 16968.781331 18188.466946 14699.798240 14818.094744 11038.771826 12754.225239 11520.408578 6984.073552 2615.346296 3110.697630 4196.678826 17415.892423 15891.514351 14323.248212 16757.261058 11992.324313 7556.572281 7963.661023 7500.673849 3186.444997 3759.260260 -491.826788 15342.215923 17702.826937 11806.554407 13698.678161 9140.251761 8461.357407 8684.234621 4478.252870 8004.503410 3187.273067 3786.325788 16827.937250 12937.841748 12657.079638 15428.207986 10613.873335 7737.814963 9078.012216 3871.528431 6162.622947 6576.807606 3929.447442 14640.848134 14162.639916 12898.494001 15585.953993 8950.983082 11961.364963 6426.266600 8794.244358 6251.757410 8596.367060 1398.267044 17430.217925 15340.795267 15466.620537 13975.748068 13602.850710 12451.451417 6385.094865 6799.759925 6375.363504 7428.798608 7552.680366 16133.324777 15569.815800 14591.109336 14240.375445 8627.670349 11426.897383 9690.007773 5160.618940 8314.511597 3288.239804 1866.529600 16063.824440 13424.708102 12333.984069 14585.476254 12748.695002 12185.566711 11376.561645 4491.504953 5566.834775 2856.921306 4498.584708 19352.166952 14760.158127 14124.099212 15144.598603 10799.943855 10467.317503 11216.986371 6412.204042 5838.350241 5738.711986 3270.519913 12186.644558 16363.633715 13120.316155 15093.499200 11540.519351 7270.653631 11688.172141 4990.483000 7004.953596 7572.619695 -197.092465 19374.857789 15664.761592 14201.745500 14235.708335 11553.421144 11673.217422 8968.402550 6220.556662 5557.238194 5334.597906 4303.941684 14653.619105 14186.354892 12628.506831 12855.824347 13893.590240 12317.189515 8077.521478 6631.087300 4332.344671 6873.951821 4830.941001 17447.441637 15196.407160 13568.748608 13967.719327 16040.808187 16155.775483 13403.271411 10625.711296 8989.571394 6325.461008 3410.816400 16488.205043 14525.556792 12451.715543 16387.597600 11029.647219 6783.904943 9966.002806 4850.405704 7962.832495 1528.192502 7260.389237 16985.425063 13963.112584 16281.247387 13093.644624 10300.669741 11491.113255 8164.869308 11494.227780 9982.615333 3345.758074 2320.314689 16526.486602 18651.916898 16205.518656 11743.772943 13408.975348 14011.785797 11950.753770 9183.148598 8227.624589 9669.696056 5191.181476 15221.688689 14958.217595 16169.708702 13984.753199 13707.939814 11874.803661 9812.049533 6916.708030 7533.169409 9028.784353 2075.327747 15497.821524 13627.750622 15039.736442 15830.384551 13908.873074 11592.383436 9432.931194 11455.031623 6314.177670 7355.217789 1033.855773 16741.244334 13760.120136 13497.013212 17416.353628 14487.046809 8581.792314 11150.336676 7427.242711 10095.465909 6652.345473 2182.027104 15975.551719 14684.925360 11522.433923 13688.976071 13426.863113 11015.324191 10131.164501 9314.704017 4987.090734 3144.947359 5884.101206 13758.667047 13955.622328 12771.093725 13365.565276 11611.591260 11253.502519 11172.448555 8525.548002 622.665121 8944.206365 5367.840809 16852.199367 14556.441320 12257.685751 14889.812805 10807.752553 12595.574552 9141.225531 4798.478649 7015.750846 5197.963598 3077.726826 16629.278914 13883.223461 13268.279421 13867.894168 12494.510522 11288.966168 9971.029707 10602.928539 7872.877705 7484.718733 3160.048178 14903.597991 16969.397725 12237.563346 14368.576188 9583.865802 10754.352665 10276.630788 10168.631396 6269.584484 2135.056419 4938.233300 17049.277537 14706.502870 15257.676564 14067.153603 11811.761623 11846.813190 7021.249140 11279.095080 9768.496889 6061.768625 3319.871210 18306.999084 15726.068595 11926.527855 14289.410571 9584.288100 10977.372715 7830.672034 12330.900773 9838.758297 5784.329348 7657.167245 14870.172370 15047.975939 16993.604679 16071.527162 16538.226350 11130.378665 12510.409944 10962.619155 9797.020629 6978.508600 5817.872108 15644.796950 17639.002223 13865.669758 15566.451410 14161.127049 13800.214985 7924.060765 14407.015897 7860.274911 9292.429611 1653.682266 16584.531584 14428.815029 11327.268009 12298.065163 13281.418914 11710.253459 10486.176761 9141.268204 4891.126105 5806.663739 9252.741902 15595.521003 14879.543062 15909.993857 13693.578346 13661.017108 11243.328781 8597.118482 7252.688890 8094.906631 7294.588975 5983.541910 17305.626907 13965.023633 15924.301176 9834.726772 11224.830585 11149.559081 10547.541935 8130.655067 6894.149079 9023.083737 5430.573835 16755.760600 18390.025843 15860.673088 14669.385795 13453.485710 7062.244514 8430.512973 7426.451159 7515.266195 3592.309378 10333.486433 14862.223124 10123.352426 15345.210081 14808.266085 14235.520979 9732.925612 15227.144987 4698.269201 8600.825155 6743.621682 2072.731325 17398.440562 17351.677699 16445.334009 14481.281148 12800.410656 16800.889903 11976.262150 6834.225379 7912.032311 7243.298263 5694.867361 15407.303966 16564.942220 16118.711049 12393.217296 13655.247835 9943.814416 13530.244049 17402.981579 5558.051201 8211.719425 4383.933613 19015.286464 23124.039870 22463.653101 21698.903834 15508.407973 22459.578151 18415.576461 22211.900548 22438.452934 17222.776368 16351.456779 12121.391948 7087.610048 1679.593757 22100.169577 15348.036110 23147.076302 21181.122581 11923.115434 23184.910548 14752.812646 12642.633371 20605.727114 8232.405375 11962.009749 9614.484173 4962.927335 13776.755267 11340.624753 14670.386459 15829.559121 9440.207473 9497.243747 8313.674565 12739.559961 13499.213140 16448.113609 11681.753233 6022.195848 8240.516140 7711.001771 4134.134137 16220.384386 10256.128347 13806.039368 16507.593199 15245.838170 15161.049921 15443.639626 17086.405343 10621.468014 15892.845298 15381.804906 8948.253300 9026.258744 7233.460579 17756.045981 23593.744211 11817.722710 11308.993712 18520.127830 16158.319018 15773.345591 12306.992648 14384.433663 5918.312352 10505.892308 8213.539144 5254.389404 8733.641206 14277.753975 21563.891445 14856.530928 23476.568433 18497.249719 21096.303946 20636.217502 12574.944745 11976.731846 9920.204838 9466.694071 9135.371216 13347.528912 3581.917012 25354.163117 8431.280513 14608.411313 16321.879091 5922.514445 19195.713120 16230.114661 20667.399808 9663.145911 8941.664995 8646.001076 6406.925016 5811.322895 6022.890903 13343.364517 12105.475429 12058.988621 18862.691098 12880.851790 18795.039798 7925.946653 7784.282790 4980.425493 7976.864274 12159.723405 8232.999904 6077.492285 5088.910546 19629.495030 19955.879873 11683.937690 6900.038413 13664.760950 7024.734582 8066.742787 7785.469680 5073.257067 11559.459715 11841.203699 5977.012426 4329.090411 2689.759764 8941.220880 13320.081880 13178.559566 10585.922102 16179.111204 9220.947747 14312.970405 10498.541651 17834.594521 5745.102209 5475.496213 4984.804635 2422.205210 3771.713506 8965.801623 12349.210739 22498.425071 17790.008218 5650.529393 9556.410801 8680.339242 16914.371943 10921.385246 12102.056169 15694.367925 9361.349912 3046.735713 5714.192183 12818.038068 7338.005646 15372.065385 22595.338460 10768.914011 15444.341277 10707.635737 15979.421084 8866.368764 12767.988808 9828.915467 19598.778000 6736.311906 4724.832128 10187.163021 4946.610730 4333.093094 14948.261197 9254.593264 5693.498015 12072.420834 19537.898793 18989.882681 8780.603109 6353.776893 7779.673187 8572.576471 1035.341307 4584.541921 11119.536827 6447.689490 5599.195617 10557.311304 6574.688935 9286.010869 12822.145938 8834.607030 12011.058384 11312.478251 6448.060968 2320.924127 7084.377692 2469.929067 4241.431614 3812.753705 293.298313 2394.392919 1721.580638 7979.736798 2807.574423 6963.420560 8178.553605 7385.947546 1858.438781 1392.934173 2459.712382
</DataArray>
<DataArray type="Float64" Name="Velocity" NumberOfComponents="3" format="ascii">