<VTKFile type="PolyData">
<PolyData>
<Piece NumberOfPoints="1945" NumberOfVerts="1945" NumberOfLines="0" NumberOfStrips="0" NumberOfPolys="0">
<PointData>
<DataArray type="Float64" Name="Pressure" format="ascii">
 27393.427920 24864.835461 30069.374199 26494.060653 31855.916968 28648.629005 30288.367872 26585.387321 25765.197117 23689.874393 25114.523706 23825.306330 27580.443646 25475.740747 30243.220694 27741.731505 26538.686973 26649.574355 24946.299852 27159.814597 24423.861281 26518.790565 24508.690015 25905.733689 23952.305101 25287.628603 24636.442278 25996.558903 23303.759092 24004.543113 27233.421703 26690.814984 26057.477824 24687.047302 24566.620273 22906.156536 26728.557513 24796.060103 23591.981858 23986.203193 23557.786219 24369.827566 21997.991164 22852.231878 22737.619838 23689.760787 20178.957770 21609.724489 20862.184467 21905.818420 20379.733724 22170.067966 22986.212921 23381.345496 22741.470602 22755.316398 21582.954730 23612.432841 22569.081330 23936.539278 22769.207106 22545.918188 24754.780675 23688.690695 23448.356174 22071.350820 23211.282060 22508.603637 22061.290873 20905.694502 22602.491196 21785.593591 22918.742549 22189.887123 20985.115573 19736.379826 20548.360058 20056.756652 18569.598144 18426.896906 18581.897431 18720.807717 16256.580354 16920.706436 18187.854271 19279.524021 17702.096372 17812.043061 18585.178175 18664.417017 18378.581457 18173.087980 18175.208230 17585.451138 16977.944585 16882.114080 17685.744962 18007.256887 16776.281348 17391.261579 17166.411346 18678.719387 16352.807985 18199.488810 16828.281443 17142.166529 18671.268294 16994.955457 17447.467682 16108.142466 16954.811697 15738.210519 16072.069273 15562.504858 15762.336205 15512.483763 15125.151011 15870.759907 15743.155231 17269.438077 16876.002259 16388.812757 17967.933385 16794.005626 17334.005574 17290.480558 17007.807472 17786.193419 16759.782255 16617.947705 16901.110057 16754.823767 15543.271548 15989.561782 16692.620717 17677.070632 17110.154856 16536.780917 17322.531183 16584.986235 15623.200968 15426.846270 15024.939149 15882.959616 15805.591241 16313.034755 16984.274030 15859.352737 18168.367947 16684.808324 18483.426697 17246.131006 19113.906654 17759.149749 17828.915799 15898.416459 15148.533966 15189.983188 14967.032133 16125.872461 15965.261786 15558.357395 16439.527051 14487.399228 16426.255554 14830.361167 16317.697931 15112.436990 17221.195587 15574.518854 17007.092634 14498.825142 17023.309669 14304.138362 16611.994527 14779.278557 15775.114092 14087.039686 14490.299159 14225.773947 13805.997613 13730.295404 14682.944363 13979.120063 15540.103682 13635.161958 15129.024551 14106.981067 14241.239600 13638.021370 12649.005707 12513.524623 12293.849197 12652.035862 13106.610329 12920.835362 12393.228572 12805.299580 11421.630154 11890.373768 11533.692773 12138.148497 11462.673698 12129.469669 12161.594193 12613.198076 11312.781457 11860.184005 12038.573394 11332.847874 24468.399114 26082.400190 24228.689739 22933.390803 21073.243106 21334.252212 22029.157071 20398.261925 18155.700949 16183.301357 14770.038756 13621.920271 12505.324514 11309.196220 10104.592590 9191.334771 8308.884218 7694.827415 7302.376320 7072.288886 5896.190419 3730.909629 1884.611133 993.201446 526.927537 0.360217 -611.913122 -1230.415448 -1792.991593 -2261.100340 -2619.161091 -2868.352302 -3019.702337 -3088.613043 -3091.278881 -3042.705199 -2955.833296 -2841.331626 -2707.735648 -2561.736120 -2408.503009 -2251.989009 -2095.190034 -1940.357830 -1789.168314 -1642.852705 -1502.300793 -1368.155207 -1240.977848 -1121.932641 -1017.062644 21556.574403 24691.902677 23803.712907 23846.644374 19791.803223 20144.334069 21312.441168 18518.645539 17080.652871 14948.224425 14064.845578 12937.649488 11924.842524 10729.052138 9496.236360 8727.155076 7405.864633 6345.314720 6690.072016 7301.538261 5736.713347 2402.503026 654.228803 828.352214 524.129770 -14.935993 -616.997381 -1223.740270 -1777.694792 -2241.354626 -2598.463597 -2849.021433 -3002.962239 -3074.889196 -3080.504794 -3034.561461 -2949.905733 -2837.202615 -2705.029105 -2560.134129 -2407.747028 -2251.873827 -2095.555187 -1941.078869 -1790.148891 -1644.017044 -1503.581737 -1369.448515 -1241.882665 -1120.210817 -998.770259 11828.396906 9896.623976 9041.777675 6585.038196 5340.773904 3651.243659 2964.287409 2124.909937 111.933466 254.621681 1368.332259 1481.772037 1477.953048 1412.815166 1301.959625 1156.362378 986.216969 801.008573 609.164908 417.827237 232.775866 58.465310 -101.875671 -246.109683 -373.038598 -482.242325 -573.915051 -648.706716 -707.578456 -751.679834 -782.252739 -800.563073 -807.857747 -805.342087 -794.171624 -775.452418 -750.244975 -719.568241 -684.401554 -645.683663 -604.308872 -561.120955 -516.905806 -472.383834 -428.203053 -384.933517 -343.063069 -302.991346 -265.001557 -229.086692 -193.855885 11133.544083 9928.766744 9396.927774 7849.738096 6542.427784 5389.968190 4146.624252 2984.012250 2006.852610 1518.306041 1450.416945 1481.644847 1468.646732 1403.822914 1294.676408 1150.985959 982.687279 799.156318 608.762907 418.624188 234.519510 60.916900 -98.933045 -242.866351 -369.655513 -478.849666 -570.612371 -645.564854 -704.643130 -748.976420 -779.791540 -798.344335 -805.875891 -803.588843 -792.638032 -774.129827 -749.125281 -718.643646 -683.664076 -645.124615 -603.918424 -560.887874 -516.817379 -472.425989 -428.360672 -385.191115 -343.407121 -303.422216 -265.604171 -230.453154 -199.752122 -941.368870 -906.381114 -912.090710 -878.500742 -837.829242 -818.755499 -745.619385 -743.177081 -667.131413 -667.271454 -596.117911 -596.663519 -531.371556 -531.955126 -472.415873 -472.976474 -418.890590 -419.417773 -370.450115 -370.942167 -326.751075 -327.208057 -287.453611 -287.876161 -252.224405 -252.613487 -220.739489 -221.096308 -192.686568 -193.012514 -167.766852 -168.063456 -145.696451 -145.965342 -126.207359 -126.450231 -109.048090 -109.266669 -93.984001 -94.180021 -80.797348 -80.972525 -69.287109 -69.443121 -59.268616 -59.407091 -50.573038 -50.695537 -43.046722 -43.154734 -36.550458 -36.645386 -30.958659 -31.041822 -26.158506 -26.231132 -22.049060 -22.112286 -18.540371 -18.595243 -15.552592 -15.600070 -13.015113 -13.056069 -10.865723 -10.900948 -9.049813 -9.080019 -7.519612 -7.545440 -6.233483 -6.255503 -5.155255 -5.173974 -4.253613 -4.269482 -3.501537 -3.514952 -2.875787 -2.887096 -2.356439 -2.365947 -1.926466 -1.934437 -1.571362 -1.578027 -1.278805 -1.284363 -1.038365 -1.042988 -0.841232 -0.845067 -0.679994 -0.683166 -0.548426 -0.551043 -0.441320 -0.443474 -0.354330 -0.356098 -0.283834 -0.285282 -0.226829 -0.228010 -0.180823 -0.181784 -0.143755 -0.144534 -0.113923 -0.114552 -0.089921 -0.090425 -0.070583 -0.070985 -0.054942 -0.055257 -0.042186 -0.042429 -0.031625 -0.031805 -0.022661 -0.022785 -0.014758 -0.014832 -0.007424 -0.007450 -0.000179 -0.000158 0.007453 0.007523 0.015968 0.016089 0.025889 0.026065 0.037776 0.038011 0.052219 0.052514 0.069825 0.070181 0.091185 0.091598 0.116818 0.117275 0.147084 0.147561 0.182052 0.182512 0.221325 0.221705 0.263786 0.263996 0.307274 0.307184 0.348161 0.347594 0.380822 0.379538 0.396973 0.394657 0.384877 0.381127 0.328410 0.322720 0.205970 0.197715 -0.010750 -0.022325 -0.358110 -0.373905 -0.881975 -0.903038 -1.639208 -1.666737 -2.699162 -2.734503 -4.145079 -4.189708 -6.075311 -6.130811 -8.604240 -8.672262 -11.862778 -11.944994 -15.998318 -16.096352 -21.173976 -21.289331 -27.567019 -27.700979 -35.366337 -35.519860 -44.768888 -44.942447 -55.975160 -56.168308 -69.184186 -69.393503 -84.591587 -84.798810 -102.412129 -102.511602 -123.046571 -122.420496 -148.305641 -142.961712 -169.255869 -159.708899 -177.960335 -168.044395 22987.883044 25936.900468 22403.428861 26223.625968 24177.907037 20646.315271 22930.367771 23220.941761 22732.682084 18187.333801 24342.348777 20223.075658 25235.364499 23169.745010 26517.004205 15991.198879 11398.950057 16832.401534 18515.804837 18591.797157 21055.726590 17505.553771 23707.722573 22492.639293 25063.967560 23870.547373 23260.912771 24678.772699 16828.074896 20631.178459 16933.265990 4762.134468 22345.747504 23967.734201 26297.152714 27188.605839 13469.212074 22443.864972 23252.816420 21570.102679 11738.659941 22737.082455 13599.661196 24026.238926 18396.529202 10492.436508 23736.890124 26416.252492 23814.899563 20667.075449 25242.437611 20669.167170 11483.881400 17680.595763 18920.125268 23446.994849 25185.046940 27039.089240 27219.502374 28236.202334 21217.100945 29321.782058 24082.693393 20700.824625 22032.479136 28872.894429 23049.264806 23527.502678 26863.218589 26453.046512 27605.985676 26241.308089 26139.205347 23912.043208 20129.355126 19490.905862 12135.376239 27070.373301 28158.469493 23021.773289 22940.206167 26889.477088 22186.140835 17006.544820 23958.613790 27911.694272 15684.216385 15909.323181 25117.702940 23905.307653 20215.304702 28756.094331 23919.192978 19810.208311 20892.418864 25999.211408 23761.496061 11020.012352 19616.385853 23232.898230 23125.848437 24511.256778 25534.190598 14035.637088 22341.591109 16544.996651 22637.521106 25209.204403 6300.517553 16484.989951 23912.861859 21586.206914 24618.570773 10039.901844 22865.818561 16419.785723 21876.780219 13201.683128 17120.261297 9093.523705 7885.496944 24254.230184 22842.500756 13561.304386 23867.736918 11720.491996 19140.239978 13052.965745 17167.968548 17930.718837 17735.339310 16654.345891 23403.187654 23693.103515 20944.236049 21755.845680 14480.389425 19929.590578 17280.417240 9777.093764 21134.323384 21518.442652 14875.531171 23137.797100 22569.100547 24636.285700 23932.581407 23473.928370 20931.379029 16716.753015 14221.000230 19683.778981 10519.461076 13249.862110 22671.917939 22164.579847 23504.694984 24202.720339 19332.951964 23975.331281 15751.649368 16985.668114 8967.986714 9995.990271 10338.118258 22422.507031 23111.158985 24222.381916 17746.021378 14080.247429 14634.559084 17789.278349 13415.481355 7843.673460 7833.665913 1919.342656 24511.221576 24054.529406 22075.864336 24116.942861 21334.425162 20093.598462 14333.099077 20294.415777 11861.860560 5525.568811 1782.437850 24599.796753 20690.597019 22682.558055 17531.471217 11737.706268 7515.612536 7030.970093 9367.623339 6551.405187 3750.499466 5222.718481 21340.772488 17967.296720 20395.327056 21822.233317 19763.376236 8579.590927 14960.408240 8145.011292 9099.244383 5565.256554 6849.540773 23433.974169 21251.228026 20410.030748 18604.293539 10281.966206 9150.138440 8575.335774 8364.657627 3733.588368 3653.005674 4033.980435 22665.023713 21540.508087 22140.941567 18356.549284 14259.001750 8299.066794 6923.994930 5729.116718 2942.473045 3533.802893 5706.500637 18462.197118 21018.444707 18548.278370 17115.868159 13364.281736 10095.557261 7337.332763 6776.589902 6371.399442 7219.318669 3361.007067 22835.256215 21617.440919 19099.669389 14617.434474 16206.078855 15143.117775 6612.216877 6502.650811 6987.773007 7269.013937 2406.473041 18401.926097 20037.435064 16300.766796 18337.069707 9307.265463 13151.141935 16151.412920 13211.511953 9059.740329 5766.785624 7193.510618 19167.186479 17736.894710 18566.962355 17389.599467 13248.858512 12992.978459 10844.880674 5226.089757 13008.000300 5227.392842 4517.121764 22607.033618 19136.957527 19657.516397 20365.754797 16763.128178 12015.232443 11316.821191 9332.683123 9696.007917 5031.030230 3647.820979 18947.610624 19282.575303 16430.280105 15927.578247 18093.086278 6494.146859 13551.058173 5956.730894 7691.448573 3009.578241 1919.339497 16693.677281 17073.159026 15838.833057 16446.459399 10929.913550 16081.425559 11670.598022 13101.930566 6308.373026 5870.269998 5807.245765 18786.415540 18343.972583 20803.392935 18290.530551 16514.108021 10799.196979 7047.120568 9615.484728 8118.452580 9851.920614 3967.690120 18967.274143 21010.967530 13282.353692 10685.476292 13152.707086 9750.647604 7289.044376 6856.931975 8119.913207 6827.269249 3425.165556 20009.690072 16348.585429 18597.847537 16474.488320 17052.599243 8579.737684 10947.474115 10434.167363 5671.489727 7934.915579 5080.396951 21016.707358 16876.569268 13761.199323 17098.450015 13842.742018 14258.281030 10053.308241 7005.636384 7714.665932 6588.324952 2673.469420 16890.403080 12047.149313 17401.257656 10459.366606 15825.198643 14072.291482 6638.116895 7039.409684 3222.148149 5873.023855 3785.893445 21086.189084 16679.019686 16404.025487 13713.283105 15990.331850 9347.005358 7182.014572 7547.348590 6871.093699 4146.640612 3240.403351 17452.984627 16049.906664 17232.088784 16282.310918 16128.549028 8739.460189 10487.262099 5679.585740 3691.296912 6080.493082 2785.682593 19351.088583 16963.502458 16958.419717 15425.531223 12296.036456 11074.673802 9368.278621 11504.577035 5254.307724 3540.074506 4252.217808 17830.124603 16676.402862 13220.969085 12594.040308 14844.167703 13330.450229 11001.995319 11380.679520 6443.871665 5470.750910 2547.705235 18965.873940 18389.651704 17132.583527 13685.627791 11194.150045 8631.762553 9961.931953 8134.408695 15511.549045 3119.969215 4817.537325 18491.022599 16996.867982 17102.874477 11294.763900 12533.856794 7176.970341 7354.777453 4166.603998 7084.918227 4137.194908 2254.030885 17432.012969 14559.806907 18098.560795 14325.164730 7151.852007 7509.667113 7024.284791 6036.467882 4338.849562 7453.374711 5375.717008 17857.128446 18375.055529 14392.300205 15960.165230 13392.013204 10005.748172 3993.599234 6613.300710 7714.027404 3644.484665 3629.433328 16949.673391 16451.416659 13675.237786 11715.899955 10627.180953 9215.352495 12178.948683 4516.766183 3798.211860 3939.355233 3051.030843 15671.038853 17772.928139 13899.026048 12047.602735 13125.830391 8538.997325 9849.516796 7208.531606 7234.100701 4959.419745 5032.013763 13544.886162 18777.265938 13810.116371 14262.209533 9055.576985 8740.022876 5893.271737 7313.864151 6220.331200 3867.139334 5958.106090 18146.797978 18274.309904 13979.517991 6882.430247 12184.410380 8322.596846 6257.107805 11423.437154 4556.093315 7271.452205 3807.508919 17714.111431 14377.674442 15618.430970 5073.995552 7923.831020 4738.182256 5003.820528 7841.223981 3610.162971 7181.132646 2498.501673 15499.612402 12555.469841 9620.538749 15997.322297 10396.353859 11061.772342 9277.109995 3964.159982 6573.880818 5535.529692 3636.332353 16939.799192 16322.129314 16220.893720 14087.763588 9370.305419 9400.247501 4381.898236 13752.881160 7155.112527 2600.930927 3126.147375 15771.728522 14422.484234 14350.130778 13367.236739 6813.565356 11687.235948 12410.515576 4946.647797 9119.972196 4385.988727 3110.957389 13428.409931 13916.768869 16607.062175 12121.013903 10364.827104 10719.379448 12258.988858 9050.442023 9904.241094 2917.707691 2959.400407 13032.392385 11794.094216 14805.186013 14948.437439 9895.218690 11517.496463 8027.784842 10090.923706 7201.358518 4688.592107 4560.539532 18445.788274 18022.119953 12418.930871 12671.790993 15079.808334 10526.576839 11210.010523 9689.428950 6450.187158 4469.389773 2534.861805 17087.708533 16124.158433 16640.512366 14980.693029 13134.529083 13224.021040 8450.044792 6396.386983 9569.915325 4192.113115 3474.172246 17692.454007 15103.259585 14446.917859 15445.006455 14870.043366 12896.708292 6252.883000 8522.712840 4468.003429 5040.927571 1894.057123 16362.954290 18113.353529 17584.992568 11637.555367 10675.686296 6460.957086 8483.458457 5234.874668 3604.713450 2899.595623 2895.328804 17116.028530 14695.998273 17201.040410 11161.237509 10725.429088 8012.043139 6265.571175 4187.074809 4602.191603 2945.141537 3238.438398 15359.580847 13768.769176 14390.149880 10532.980849 6566.040920 8086.512530 8918.743787 4259.595596 4978.268339 4346.601947 2812.045109 13685.336604 13606.769709 12290.412749 5675.227167 13514.348915 7014.137814 8735.442893 5504.667690 6756.029825 2962.188745 4217.481703 15545.637031 14616.726702 15659.693720 14155.463486 10110.205698 10569.730399 8735.680371 15337.728964 4615.889487 3553.254391 1983.947581 14901.964353 14486.935435 14911.339391 12501.406418 11540.859128 9077.319332 9672.591087 8252.826622 5218.786826 4222.335261 6540.577499 18081.778360 13170.618539 15008.764088 14566.339173 10133.775344 10590.410621 7099.063179 3217.220046 5733.336476 5375.749452 3293.249907 17213.935126 15092.285266 13278.629825 11720.080845 11747.882998 7687.965837 4543.321762 5050.255985 6858.857240 6029.815077 4130.654892 15721.715571 17260.866266 13594.193568 13913.102895 10994.320092 11775.163682 12847.896821 4856.327320 5380.224030 3983.649573 5252.583036 16447.181035 15998.752158 15966.227397 11133.514443 14612.636209 11600.608998 9513.241096 8976.063373 3964.668242 3868.341885 4356.546532 15088.977448 14056.498941 13361.516305 12727.145646 12979.949266 12262.853392 9762.963165 5587.696614 6525.456534 5494.938786 3637.847971 14402.676170 17575.694075 15458.543132 11930.945464 8146.346463 11658.015204 10583.990892 6753.390365 6664.231777 4824.002843 5222.621059 17545.909448 14086.592018 12456.346780 13715.346322 11724.742149 14147.042052 8968.095978 7557.542197 3956.686384 6658.572934 4064.825005 13494.117113 15325.337051 14122.982296 14809.227232 12212.733802 7720.228033 7861.827542 8449.640326 6137.515616 6416.393557 5299.566686 15742.053324 17076.920347 11999.301860 12243.814794 10633.853847 10815.790977 11819.413828 6497.293722 9458.061997 4117.619606 4695.152525 16515.208091 15709.651175 16343.371444 15975.035827 7447.115572 9931.920967 9765.512885 6164.661759 5734.674080 7681.227320 4668.206756 16200.487552 15289.978283 15607.051411 13519.280903 8587.906593 12440.984001 7517.773854 10370.392876 7448.250000 8531.665426 3051.528846 16293.398325 12029.519316 14380.530149 16165.091264 13209.469375 10584.017121 10901.169218 8694.924213 9779.759015 8908.285810 5797.253056 15500.956879 14593.974802 13477.479318 14237.002389 9507.026731 12449.285711 11455.555475 6767.395816 14148.035137 4926.212479 3187.544894 14612.388805 15222.247795 10819.274298 16701.476801 12669.102104 14173.437124 8420.458284 8667.108061 6661.619663 4455.715727 3131.929064 15740.736700 17060.595850 14209.845827 14029.287926 14399.684488 10996.334523 8739.546381 7998.606719 6818.213456 7600.060665 4868.661255 14613.874503 16123.873466 14175.123299 16299.055360 11947.972788 9737.182583 10581.236250 4474.656643 7940.019796 8801.372594 2153.313552 16795.683596 15879.304389 15639.599639 13407.466649 11963.913330 11175.222444 8677.924247 7967.492782 5598.369780 4814.361621 3028.807192 14301.986063 13833.472897 15357.049039 14315.495895 13871.520446 11680.505629 8529.486433 6552.422366 4771.092581 7427.048703 3022.442652 15757.643482 14372.801666 14098.248646 12508.486385 14652.162710 11190.662741 14284.879494 10180.582041 6555.313004 4712.325114 4645.159824 13712.991711 14506.431408 13391.206545 14367.304978 11010.603681 8840.243631 11194.521636 7338.635083 9794.940312 4026.451488 8509.380153 14451.576289 13019.413507 14174.602666 13019.531631 9124.724129 12041.638085 10364.819073 11438.482803 9084.509295 3302.020965 1651.761755 12800.978408 16042.116745 16231.061338 14265.366187 14293.755660 12710.230849 11834.461702 9562.012281 8563.106498 8162.560146 4317.052793 14532.192476 13229.603996 16790.009397 13368.079727 14363.938913 10936.487814 9691.066419 8107.019660 8172.390112 8182.342118 5626.525814 13275.545107 12784.835118 12977.514744 12316.863211 11861.721403 12130.814186 6793.779625 11490.405813 7403.861505 7692.304360 3526.238920 13221.213736 12749.580938 14275.984921 12810.744543 12507.194590 8852.480928 11112.626910 6556.336323 7653.220547 6417.805344 5465.477458 14999.640394 12074.372974 11854.928273 11965.712880 12843.681612 10497.511929 9992.927766 9006.008380 5015.252869 3144.355723 5250.360954 12135.464975 12172.841900 12110.369221 12338.232776 11976.130262 11176.355971 8954.667319 7140.240063 4835.129691 4683.315508 3546.215174 13983.491981 11784.463487 11950.559673 12360.142818 10293.001650 11788.939472 7078.392139 6085.508804 4540.197970 3533.698364 3525.402540 14146.560762 12070.463963 10959.277295 11879.716122 9707.870160 6250.115913 8499.595100 11434.375423 8502.106118 6683.558976 1913.619222 11859.095966 14094.622157 10066.381890 10335.469350 6818.869283 10034.269291 9545.544546 7851.797755 6969.273663 295.057516 3729.475561 13318.394534 11287.930451 12141.702749 12213.818670 8007.180117 10468.262399 4566.703566 9048.900732 8303.254065 6602.785537 1329.881076 10988.641613 11284.770159 10115.182065 12967.305811 8152.077130 8641.743932 8406.092726 8132.257062 7182.812030 4275.299945 7191.568461 12206.771085 12005.365514 13347.503597 13082.702789 13175.614058 7850.928969 9434.213094 7875.023201 5257.097891 5192.647865 3587.887305 13384.559803 11213.844897 11935.202728 13417.907771 10916.578700 9015.744445 5274.708574 10391.505956 5778.136018 7031.299301 3141.518186 12868.737076 12154.298497 8670.015627 11100.986008 6722.340103 11725.351573 8496.309048 6624.133250 1244.566406 3733.022051 6413.823604 12652.917561 11226.727742 13593.863964 10643.953083 8366.174441 6829.918887 6384.979659 4907.051512 6567.966151 4181.851253 4220.821955 13118.117619 10572.455483 12417.606812 6758.350330 7234.292386 6717.484950 10391.119803 6215.171582 4790.224262 5353.281803 3834.373682 13519.676516 12359.974808 10813.092741 9423.570345 8322.282327 4194.802289 5498.673476 7266.479219 4854.957796 5466.403896 5359.917128 9940.729231 7152.405607 11692.785935 10747.711236 9150.638183 6168.592218 9938.220016 3104.754088 4485.558564 4367.340769 164.130837 11987.532534 12646.033306 12654.352570 10114.017431 6831.669010 12451.097738 6934.376538 4374.656611 4738.309257 5439.713962 4222.844457 12853.858434 12440.532533 13187.323916 7207.452627 9007.351194 7492.611745 9167.790254 13118.159203 3689.394615 4530.968523 3697.971385 19758.918169 19995.163737 23800.748860 22515.035527 13895.929364 19495.277381 18337.736952 23716.337834 23554.716045 17902.574994 14639.360467 10506.991606 4882.617037 8648.179610 22141.223575 13379.325355 23144.775092 22728.038933 7552.724852 22498.473419 13863.085381 10659.361357 18629.156220 10125.740393 10873.872462 8443.537411 4815.919402 13669.274234 10387.547100 16642.303320 14776.306878 7203.710355 7556.358853 10396.680149 14041.260710 12709.890664 17969.473186 9708.255310 5687.466297 4712.544572 4884.298618 5901.682156 16022.362245 13049.066715 14619.010335 15657.358724 19019.465787 14468.107087 14609.174460 16168.173537 6566.930389 19786.763073 13227.553848 8991.244866 5798.628984 7007.967733 16599.201189 22535.587152 15506.417461 12024.906751 20606.757786 15883.906159 16297.849773 11806.891978 14520.389180 6524.728151 10063.154524 11402.279557 4168.014117 2900.331489 14368.168505 23448.860968 11995.517834 24232.750206 20047.097668 22632.702050 21910.320332 11521.126992 9326.298354 9942.480098 8712.423877 8020.604864 16043.039795 3303.275318 27043.277849 6514.226815 14115.557838 16497.575478 6447.871972 21055.917472 18274.389221 21030.147306 11390.199693 9877.531220 7864.171122 7178.770896 3825.235901 1591.029813 11057.161807 10190.823961 11506.261233 20120.278973 14847.472482 16466.863493 8656.544037 7557.326991 4506.503775 8760.019035 11467.607953 5009.928751 4360.957611 1711.578839 18546.594413 20511.434271 9859.226737 7276.525388 11736.408394 9011.430757 7928.823860 6660.194893 6514.026752 11980.413130 10027.787094 6422.393747 4284.590674 3804.663872 9297.683912 11963.640117 13673.600057 8840.947765 12517.262476 10442.795291 12523.801986 11170.670216 13530.768621 6640.007341 6668.476165 4779.651700 1377.871907 3169.169024 9810.923603 10533.553195 19391.668508 16603.193357 5736.799661 8414.888739 8813.082523 17298.239237 7987.472021 11975.009961 18508.502434 10292.337004 4824.933805 4884.016415 12006.555934 6762.280079 11846.747054 19912.229496 9923.827565 15198.217088 6537.567128 13033.524563 6236.227858 9564.406981 9604.842622 21260.065376 4733.610883 3758.033198 6786.091235 5835.080553 5744.095611 13165.687492 6078.116990 4290.118105 11297.162450 18668.215927 17710.941967 10354.947784 6025.438167 7832.477035 5989.174869 3432.177230 5810.350707 8324.279619 6034.277167 5168.117182 7632.501027 2839.211605 8143.804168 14141.102765 7041.763573 11841.009915 9052.533900 5616.303857 6189.085248 6368.478740 5394.086673 4904.862695 6104.009351 2215.844561 5717.243403 3733.288546 7472.154353 6115.694803 5522.082891 5709.937677 5120.032212 6060.082040 1901.066186 2757.970907
</DataArray>
<DataArray type="Float64" Name="Velocity" NumberOfComponents="3" format="ascii">