<VTKFile type="PolyData">
<PolyData>
<Piece NumberOfPoints="1945" NumberOfVerts="1945" NumberOfLines="0" NumberOfStrips="0" NumberOfPolys="0">
<PointData>
<DataArray type="Float64" Name="Pressure" format="ascii">
 19413.576603 21278.300687 20166.861113 22415.785034 20018.612252 21330.153857 22153.653733 22176.905371 23965.631421 22971.021055 24066.853608 22430.845664 23929.927844 22821.300048 20987.509154 20067.273612 21938.298358 20960.889233 22289.220855 21689.761592 21107.733526 20879.323406 21820.098556 20888.959996 21517.459959 20364.599916 19969.188712 19703.321354 20337.039860 20335.753878 20086.423387 19527.708827 19591.148696 19040.703433 18774.105152 18398.609668 18197.380740 18148.818366 18282.370504 18023.976148 18545.522450 17375.040329 17291.284399 16692.213206 16897.137705 16539.353211 16252.094528 16280.667805 16081.131908 15473.444071 17147.041605 16898.961367 14459.700131 14240.132077 14263.736247 14417.788753 13547.787436 13501.188469 13362.283176 13401.421823 12885.830731 12758.331602 11351.618973 11367.613767 11918.863285 12282.244833 11100.650587 11430.560138 12199.064703 12558.569111 11364.574995 11229.556295 11699.374811 12179.466711 11603.362997 12184.502493 12209.822158 12183.228644 12144.101139 11801.572713 13360.896585 13193.848265 13795.399930 13357.677019 14091.629463 14013.806435 14107.936085 14003.197972 14524.226726 13916.684759 15071.848101 14902.126922 15828.444417 15098.914604 16997.933117 15964.531748 15825.427922 15212.970490 15540.001211 15289.782787 15892.970749 15219.717755 16418.655639 16150.120450 15761.610246 15611.572060 16787.313581 16226.730123 17515.089778 16531.789549 17623.096032 16881.801302 17885.706925 16442.353581 17620.208623 17004.957207 17707.297206 16881.072568 17973.368394 17168.581862 17848.756742 17142.731367 17492.524711 17273.411358 17868.053498 17567.468339 17721.282949 17183.656338 18773.414294 18104.187800 18504.892794 17773.183886 19076.991387 18041.104173 18323.371357 17622.646016 18554.481456 17804.017684 18097.599315 17368.635150 18241.176078 17041.916898 18633.372455 17623.360330 17931.435178 17368.430917 17577.687279 17218.232008 18449.700859 17599.717676 18807.537914 18168.043576 17069.468808 17599.120620 17367.618779 16942.500173 21378.233605 20607.913835 19315.259957 19034.834078 20693.431962 20447.949646 22145.662046 21908.636045 20217.065641 20391.555227 20322.936466 19924.614527 23678.313535 22592.717088 22705.760324 21969.486152 21288.177786 21434.089921 22322.297972 21529.153100 25435.864453 24652.613870 26812.088964 26352.687866 27977.244882 26547.590588 26547.739190 26288.318284 25312.462904 25231.126974 26707.347320 26057.545288 27330.674867 26021.550082 27131.858228 25170.406965 26786.561333 24967.595369 28957.503463 27528.883654 29012.462761 27373.282306 26843.421734 26559.219322 27803.511059 27450.563756 28450.710786 27401.367308 29415.484884 27476.940883 27832.724487 26206.786601 26053.114366 25710.857866 21829.287375 19480.818222 16363.666542 14281.269191 13018.995064 11136.128150 9193.167140 7481.227282 5837.983803 5880.074134 5964.121472 1448.747280 -2765.454908 -4664.325930 -5854.426854 -4853.139092 -6074.516840 -9263.128409 -9017.619417 -7835.386286 -7068.683038 -6594.233159 -6287.126212 -6073.718680 -5898.614076 -5723.684373 -5526.784248 -5298.539702 -5038.384012 -4750.952660 -4443.343777 -4123.302262 -3798.165264 -3474.345845 -3157.153235 -2850.799298 -2558.492850 -2282.564719 -2024.594481 -1785.526780 -1565.774145 -1365.307199 -1183.734352 -1020.372976 -874.313457 -744.477061 -629.668956 -528.632762 -440.145876 -363.388569 -300.195136 23349.715656 20674.578998 17711.368863 16016.064503 15279.727693 13219.793336 10807.875590 9221.616559 6637.905526 6344.408526 8969.059067 1145.033611 -2453.822635 -4848.131198 -8141.412274 -4360.874093 -5556.639238 -9394.289035 -9141.110137 -7767.110570 -7101.407158 -6626.987381 -6308.566618 -6084.133183 -5900.817954 -5720.785530 -5521.432173 -5292.659097 -5033.178521 -4747.042811 -4440.942441 -4122.372665 -3798.539935 -3475.805073 -3159.470837 -2853.765699 -2561.924250 -2286.304718 -2028.512249 -1789.514081 -1569.742325 -1369.184572 -1187.464047 -1023.911148 -877.627676 -747.544380 -632.471144 -531.133570 -442.156948 -363.756272 -291.681646 25396.370532 26597.143718 24716.680893 21804.234672 18199.966227 17523.423407 18092.052105 15933.884925 12808.081525 12298.160411 12090.442319 13164.037154 10596.880875 9008.788079 7625.950415 6800.524246 7603.485403 5785.648621 4547.270328 5660.934682 3212.663469 288.039714 1220.145573 4066.733336 721.606818 -1606.429985 -596.310572 -3477.514317 -2757.578451 -563.132330 2123.193733 4529.061818 -315.386179 -2663.708990 -155.656117 526.350907 676.969411 646.722367 546.290132 429.463550 320.902457 230.329672 159.808737 107.674156 70.727111 45.462283 28.702091 17.857745 10.967061 6.609333 3.743508 26016.496773 26277.450195 24637.914705 22131.117997 19791.933924 18898.013658 18183.457324 16928.970899 14943.435953 13608.862771 12837.134287 12271.349172 10919.418007 9609.466210 8673.273820 8017.184884 7892.228034 7420.513101 6976.710495 6537.833760 5574.422497 4287.086018 3642.023817 2998.567917 1660.846921 204.329064 -822.050026 -1564.595321 -1560.974324 -553.538856 816.042203 1450.426449 894.377846 206.335853 240.357169 524.078422 649.988741 630.580056 540.537947 429.600148 323.732066 234.024505 163.420564 110.771804 73.174786 47.283139 29.992554 18.735732 11.545911 7.004488 4.184413 -257.040461 -237.481634 -243.587001 -225.478871 -208.799517 -199.180218 -168.398750 -167.396192 -137.496914 -137.754768 -112.126784 -112.534743 -91.109894 -91.487746 -73.732697 -74.057767 -59.424547 -59.699224 -47.696747 -47.927032 -38.127688 -38.319639 -30.355197 -30.514347 -24.070097 -24.201376 -19.010139 -19.117885 -14.954267 -15.042264 -11.717267 -11.788786 -9.144864 -9.202714 -7.109281 -7.155855 -5.505275 -5.542596 -4.246628 -4.276397 -3.263081 -3.286719 -2.497677 -2.516363 -1.904478 -1.919182 -1.446613 -1.458134 -1.094641 -1.103628 -0.825163 -0.832143 -0.619673 -0.625071 -0.463602 -0.467758 -0.345536 -0.348723 -0.256575 -0.259008 -0.189807 -0.191657 -0.139892 -0.141293 -0.102722 -0.103778 -0.075150 -0.075943 -0.054777 -0.055370 -0.039781 -0.040223 -0.028785 -0.029113 -0.020753 -0.020995 -0.014908 -0.015086 -0.010671 -0.010801 -0.007610 -0.007706 -0.005408 -0.005478 -0.003830 -0.003880 -0.002702 -0.002739 -0.001900 -0.001926 -0.001331 -0.001350 -0.000930 -0.000943 -0.000647 -0.000656 -0.000449 -0.000455 -0.000310 -0.000315 -0.000213 -0.000217 -0.000147 -0.000149 -0.000100 -0.000102 -0.000068 -0.000069 -0.000046 -0.000047 -0.000031 -0.000032 -0.000021 -0.000022 -0.000014 -0.000015 -0.000010 -0.000010 -0.000006 -0.000007 -0.000004 -0.000004 -0.000003 -0.000003 -0.000002 -0.000002 -0.000001 -0.000001 -0.000001 -0.000001 -0.000001 -0.000001 -0.000001 -0.000001 -0.000001 -0.000001 -0.000002 -0.000002 -0.000002 -0.000002 -0.000003 -0.000003 -0.000005 -0.000005 -0.000007 -0.000007 -0.000011 -0.000011 -0.000015 -0.000015 -0.000022 -0.000022 -0.000030 -0.000031 -0.000042 -0.000042 -0.000056 -0.000056 -0.000072 -0.000073 -0.000090 -0.000090 -0.000105 -0.000105 -0.000112 -0.000110 -0.000097 -0.000094 -0.000041 -0.000035 0.000092 0.000103 0.000360 0.000378 0.000852 0.000882 0.001709 0.001757 0.003144 0.003220 0.005479 0.005595 0.009189 0.009365 0.014977 0.015242 0.023871 0.024266 0.037387 0.037973 0.057786 0.058662 0.088546 0.089873 0.135242 0.137300 0.207309 0.210561 0.321644 0.326553 0.510505 0.515002 0.841756 0.822801 1.510870 1.271845 2.278264 1.752354 2.658153 2.056787 22142.393593 22041.636601 18133.614095 21583.260997 20635.278393 12993.557036 19128.795931 18453.852057 20375.028266 15736.052066 17847.491948 20980.451567 19482.569687 17467.396573 20068.202850 16418.930481 10838.745427 13919.144340 14193.808569 13838.067232 18038.617681 14069.176001 21107.099809 19654.447023 22473.151438 20530.851863 17555.081557 20029.783594 8004.177546 16788.677510 14899.351567 6739.196087 19656.291688 20629.397471 18543.374765 19591.701843 12885.260408 17605.208199 19085.264461 15633.097254 8688.273719 17320.233266 10135.889281 16472.625422 14835.967575 10657.713321 19024.001701 20704.581828 18388.480838 16940.742011 16470.448647 16022.638721 9155.717569 16282.315136 15915.455264 15378.412801 17741.300219 18266.431810 20466.027065 18285.862799 14799.596246 17992.408350 15620.477599 13351.103692 8477.804464 17731.360754 14222.813518 16961.055558 20040.107304 17101.133459 16988.520758 13559.048234 14093.032433 13109.810722 12170.569690 14677.517356 6498.025193 15091.063650 16907.906543 14822.740743 15397.852847 18481.590559 10971.773695 10802.916758 12720.335456 13852.691645 9372.918700 7539.364751 18015.524063 16735.643009 14160.598992 16021.354449 15465.760076 12159.735657 11366.577908 13652.355680 11382.139992 8468.279141 12942.628806 16113.796837 13602.180550 12434.734390 13959.592790 8116.064886 13183.264288 8991.195921 10871.162963 10945.398725 3446.278364 8904.570931 15452.763900 12874.171846 15073.089185 5833.868735 13953.019279 7290.462795 10560.549091 5006.550731 4718.910623 3451.248822 2443.868161 12726.366658 13188.296717 9246.698695 11283.794516 5022.226914 10566.244600 5103.028812 6589.410754 8281.514257 6509.763799 5961.039385 13418.953131 11479.776655 12194.592726 10783.221048 8226.195182 8258.600814 9084.512390 6597.527693 9145.545869 8278.932528 6287.782072 12102.705749 11176.443631 11934.253741 11337.937492 10460.668643 8483.684485 8021.796533 5675.808978 8802.513189 3184.279825 3313.336190 12428.482962 10742.453595 11716.389819 10532.065380 8610.156920 10843.458246 6774.721848 6259.182769 1763.302432 4535.553395 2911.314764 11855.618832 10636.373592 10594.757943 9953.827105 4973.225360 5422.906288 4932.952461 3578.359589 1738.292895 1186.115501 2150.690618 10740.578236 10451.067636 9230.098467 10599.899655 8385.005630 8776.295162 6713.745338 7223.794694 2664.223307 1009.002794 1333.617909 12387.874328 9560.454063 10357.793243 7726.648270 5262.491467 2623.463082 2357.636013 1770.472366 871.884504 769.698305 1706.780402 10850.446441 9355.527499 8798.183041 7813.316476 6135.709869 3272.594837 4987.667983 2485.513893 4657.254401 2598.561962 824.267489 11608.180516 11749.026797 10988.026143 6864.857662 4696.162422 4428.612570 4801.274562 2558.407835 1004.390857 1472.799481 1272.614666 13122.996639 11264.355574 11106.563393 9790.276104 5683.546727 2415.311158 3098.309981 1835.272770 1160.070587 1460.728920 1363.980858 11399.230727 10316.328792 9630.272272 7521.405067 8086.211584 1581.444073 2659.043826 2388.060190 2362.155415 1020.641227 1603.429291 13679.719191 11810.949133 9522.071054 6805.780050 6716.460373 6680.529559 1731.704288 1934.362242 1554.383950 2623.170198 1332.828769 11676.224577 11851.546966 8363.353075 7766.940236 3195.809279 5672.217573 7150.690386 5553.403943 3721.908781 2702.000336 1272.881351 12630.537476 10552.529942 8527.150934 6606.119072 6691.025286 8378.619066 4447.430222 2124.232608 4822.400210 2125.532905 2074.542890 13266.060981 10865.576112 10299.741750 11703.614722 9460.355277 5825.666342 5789.330284 2766.289114 4659.520646 4934.326969 1495.750533 12430.606377 12100.974514 11455.403316 8216.654194 9421.888883 3835.833222 7038.048269 2024.917858 1994.129908 1106.613195 1237.210225 13358.374790 9827.252154 7011.440809 8855.744921 8883.215513 8880.209806 4843.080578 7760.492318 1242.558339 1103.711948 4222.644046 13324.872296 13770.391460 10729.994833 9314.354000 10499.260683 6815.902648 3307.561701 4386.213678 4315.642103 3671.216489 1539.678449 14820.792755 12316.503405 11037.306640 6024.360864 8105.684156 5673.427696 6251.917350 2431.598389 5030.723499 2788.073663 1875.000886 13483.407526 11621.818221 13761.748701 9788.388987 8172.912630 4313.635885 5634.704729 4982.322591 4146.920423 2584.935845 1291.506738 15117.174784 14224.532868 9669.495724 9838.572767 10226.986114 8324.644247 7372.025148 4472.960471 5025.457796 4337.589038 1479.116330 13372.608451 6442.255803 12619.448387 11110.432204 9809.553805 7890.046389 4463.200272 5494.264528 2367.796097 3016.972118 1648.407207 14920.866342 13966.968659 11974.465947 11630.732582 9616.071239 8428.774373 6522.319264 5420.578911 3086.255832 1109.423050 2304.716018 13646.941685 12110.567688 13588.936250 11923.220005 8580.360926 8971.015665 6565.032357 3679.193537 2885.651070 3302.844597 -796.712813 15969.800459 14972.638148 12405.838032 12341.040150 11751.003437 8812.994434 7263.919099 9871.303571 2872.099777 2669.452397 1435.128652 15207.560716 14025.281337 10442.836021 10563.484394 11710.632644 7981.217449 7854.462395 6509.790147 5704.195966 3939.942530 369.049555 14277.215048 14690.035398 12802.428619 13297.620414 10809.838368 7655.421057 8493.032934 7092.509857 7002.014024 2110.913934 1944.537114 15956.102220 14783.024708 12772.002706 10924.105490 9825.782470 6577.189205 6033.533904 3788.918209 5488.431831 2819.311765 1987.853567 14746.882203 12221.337569 12621.069746 9297.827559 4924.126490 8414.103159 3760.619924 3681.562800 1864.001425 4470.722252 -724.909775 16043.312743 14777.346439 14234.155056 11769.031220 11072.928781 7118.863011 5839.282624 3964.743376 5868.114716 225.515707 1701.573336 15441.600387 14100.053257 14116.455089 11413.148062 9537.296870 7807.865412 10550.032470 4688.357191 3863.195716 2744.840235 1004.867461 16457.569517 15123.405772 12981.174034 11483.158359 10557.831246 7369.683640 7334.426383 6321.372237 3110.058725 3714.034565 2970.791469 15218.934772 13994.197623 12938.659245 14345.257727 10606.149516 9398.992044 5911.288625 3907.657165 2540.927469 2034.403032 -2464.485377 16501.158239 15277.836155 13379.968465 9753.260293 8841.068638 8610.421457 4031.977792 8406.756552 2483.186856 4417.466549 286.380992 15511.735500 13055.995283 14714.004903 5204.682779 5455.886422 6562.266610 4882.295183 4129.764188 2117.010540 2909.094673 923.919749 15214.568079 12283.140137 12133.302713 12632.422674 5280.872782 7819.126170 8387.791618 1759.759353 4134.961023 6655.740462 1172.069940 17175.954454 15095.195701 12768.498840 13222.773572 9929.815610 7354.531248 2521.501459 10415.895063 4706.877324 1415.564175 1011.317383 15787.097404 15810.475890 14238.194610 11272.829014 7902.794947 9168.849382 10398.908629 4648.908878 5480.124588 1117.376180 1505.988260 16103.748226 14780.941394 14879.938177 12257.435687 12282.727008 9136.841230 9521.297993 5516.686951 6329.310438 2066.209840 784.820117 16468.535514 13550.991641 15712.926242 12684.111918 10528.295395 10176.789063 8187.725933 7498.620410 5672.027107 3669.090421 1458.540893 17832.232468 16359.823560 13032.888048 12498.626815 11250.475062 8460.375045 7576.031586 6897.787067 4376.689330 1908.414777 1024.488405 15999.258258 16251.928282 14656.208016 13247.592473 12119.108971 10518.605951 7910.228629 5934.680684 6479.283609 5655.805610 1974.262867 17396.763911 16399.093698 14087.438983 13138.666747 10702.939971 10195.680182 5826.075362 5673.986769 3337.867180 3744.590904 1113.707061 17122.332517 15939.309096 13946.132728 13482.450322 8055.333250 4414.705992 4380.905208 5269.136888 1415.705744 1699.844490 565.975572 16216.160295 15656.591334 14090.637396 12722.903299 8892.827963 8033.780300 6684.048630 4190.584248 3347.735130 2794.841810 1182.518429 16260.501798 15436.654353 13353.033521 11286.757035 8054.900093 6736.301004 7072.551998 4503.954079 3102.370206 1986.527572 -120.642973 15921.181068 16211.209720 11476.763572 9913.025996 10012.773763 9040.682387 8448.118281 7129.987837 4735.083736 2628.456630 2188.104705 17251.561053 14391.070293 12302.986812 12596.066689 9941.555248 9659.529827 7500.722365 8876.420923 4152.840017 2141.772887 2775.663212 16375.650066 13993.698470 14281.555342 13197.009058 10744.751939 10076.089722 8553.261972 7029.716666 3665.608850 2792.246681 4550.160887 15199.669178 15060.584301 12796.285225 13258.844598 11380.258899 10665.283284 4823.046800 2992.368662 3414.168658 3077.454636 7115.508471 17214.522637 14167.564672 13060.700700 11925.310243 11202.645551 10156.766330 5971.491855 4035.875997 5653.757465 2642.357692 2625.027167 17310.535869 16859.038613 14280.455881 12449.277517 11722.203687 8599.227474 11200.186638 4953.515862 2347.028663 2685.826021 1250.856859 17783.081724 15549.165453 15547.631097 12520.524780 13402.839299 10754.354482 6817.702342 6190.293496 2320.283759 1475.811683 1526.417779 16992.705725 14779.670260 15706.278173 13461.777484 9911.161451 11943.409438 8652.769897 6713.095670 4807.037558 4009.364980 1527.880909 16911.013750 17425.563238 15325.731455 13500.332692 11798.322779 10080.542745 7660.647910 6877.202212 4388.468576 2030.857303 3043.030479 17726.641571 18030.412611 15535.179894 14395.109162 9348.972554 10159.301138 8121.476230 4455.586568 4303.102009 3491.411666 1663.844782 18887.262518 16290.160994 15068.687855 13641.220829 9557.428052 8071.814940 5468.529488 6767.668608 3697.251289 2943.060722 1330.379445 17145.969856 18879.023553 14778.043594 14017.984626 10996.517577 7252.952104 8028.603788 3851.245245 4896.761782 3613.434708 953.352706 19700.494716 17586.846891 17475.555612 14128.785817 12423.865756 9308.158478 8314.591631 5821.349136 3489.554302 5446.626370 356.474209 19274.844207 17550.782812 16932.379712 15820.854064 12168.551359 10999.837037 4622.004744 7121.229110 5098.618378 3099.054390 957.568426 21557.072068 16271.241322 15693.367977 17610.596394 13052.730495 12913.655254 8154.655173 5675.922405 4311.867301 4084.107310 1483.072223 19349.347131 18098.368405 20064.918036 14000.883520 10685.279658 10156.726941 8792.241710 5919.146318 6867.608071 1967.835053 -1055.837856 19035.598856 18028.190962 15681.553157 16539.527849 13410.112827 12013.390746 7792.992185 4959.963699 3986.451560 1982.958546 572.464303 20006.043998 19516.837951 18091.806134 12202.079287 13762.627843 10059.972952 9910.619388 7560.640174 3867.871895 4364.109149 -4173.592850 19766.768038 18838.096677 14148.849820 16516.694054 13457.535116 7621.602586 10066.383609 5191.010158 5814.799374 7771.885542 437.047238 22087.635918 20087.140219 17132.989641 17790.034410 12154.042865 11299.241956 9806.122483 6081.765496 5252.969688 3790.557033 -411.307806 21028.751878 20807.383515 18975.720358 17613.460678 14521.702047 12270.144474 7569.993611 7519.280056 5877.260688 2289.254662 1877.161259 22117.424467 18714.285338 18850.520460 16357.311027 15026.647163 13745.149225 12500.012121 7405.131299 7631.768063 3725.519339 4042.966261 22211.119061 21862.384858 17823.978882 17251.763568 14591.579585 13360.606264 10470.157771 6425.301026 6527.382372 4871.653186 3950.023508 25699.546356 18970.125407 21656.973596 16588.602191 16971.308134 11045.356646 7725.048585 9491.849747 5752.431024 2950.635067 681.318517 21827.162617 21265.998704 19941.064516 19119.180294 14042.179810 12611.848367 10737.680043 9780.580723 5654.479730 7714.483372 2530.233199 22126.837374 21255.971914 17284.244438 17477.355305 16546.270531 15209.894045 14460.425519 7332.192739 9258.849587 6111.584524 986.243643 23058.109048 19735.375528 18815.768545 20012.764160 16752.208397 14691.749576 9175.176914 8489.477587 6827.426545 6370.858505 5606.667546 22917.160963 21104.685467 20890.702389 17552.111401 17028.307161 11576.632384 14166.349293 9854.110245 8177.442332 5954.251934 705.573616 26029.395483 21273.074871 18924.728958 19149.267045 15916.087430 13055.466296 11433.749370 8312.872767 3210.168196 7659.629011 5001.180090 24056.611699 19796.631718 20442.589242 17581.656465 14930.241373 11635.904401 11865.800776 6996.417871 6222.052534 3175.281863 -974.069785 24726.585686 23739.902534 17768.949177 18642.751865 14653.499639 16181.925669 10431.985067 8415.577110 9376.880310 976.588238 -3534.401496 25884.986107 21990.933678 21814.102366 16876.501749 15251.405414 15503.679810 14129.635753 9937.323011 9260.663119 6869.846109 1643.479931 24039.273324 23824.647641 20780.799772 18232.179288 13898.788247 14556.225829 11197.565076 9607.071591 6999.501573 6211.990547 -23.200442 25052.314263 23281.114638 21474.643534 20746.043345 17864.139255 14201.071308 12252.595950 12362.515044 10960.339317 6833.236114 1463.770345 23832.200691 23651.278705 18706.669671 21408.567912 14896.493694 15441.936190 10580.330995 11310.183239 10019.494522 3406.293965 6263.444089 24078.735614 20831.983614 23664.931382 21800.080905 18895.299326 15287.530945 12728.045409 12854.367592 9156.245459 2752.312781 4633.439359 25590.518117 25068.783810 22900.711259 22380.744220 15665.807103 15679.001460 14533.889156 14741.919803 10769.842114 8573.282729 -3534.401496 26547.548293 21024.755557 24087.978169 14138.196008 17492.337003 16215.841638 13537.528771 12763.630400 9936.483874 8318.245369 9566.345522 25997.373348 22605.441571 22660.780493 18385.788684 18115.285069 15471.975178 12758.198862 8951.367610 8063.356901 6989.210313 1208.499560 25390.971412 25048.419826 18567.937979 15557.353576 17206.840103 12928.324035 13281.518515 8514.454614 10097.942693 9309.845613 -1524.143519 21369.428744 27209.522656 24559.568126 23846.404417 14522.102227 13200.342174 11405.397512 12408.695290 12007.243585 7379.169175 9902.556348 25062.755184 19313.812670 20287.530777 21111.760070 23760.065787 11622.475073 17678.339980 11298.426394 10559.904938 7969.289610 7232.301406 24206.321268 26561.523351 27130.217160 25823.194329 14746.032547 21837.689103 18671.209212 9975.968981 10512.886417 9870.814126 4457.263585 25481.568761 25513.174254 20297.279557 24065.147463 20583.307934 14362.737076 22626.656044 22254.363514 9848.504548 10211.737240 5355.932577 14064.602257 20537.981441 20746.320228 17136.475927 11356.778178 20317.866942 16931.856345 13227.105149 16526.032339 14539.298856 11450.426030 10139.704156 3796.337289 -8394.980604 15463.608252 12065.230600 17473.505176 17377.184937 6970.178689 19927.967150 12618.324203 7502.828253 15473.403933 5411.627431 7592.740243 7268.435827 5529.075987 9334.534939 9856.427332 13372.219916 10182.809650 7609.087336 9126.714810 6483.683005 11987.786509 10847.487053 13355.861158 8824.819342 5071.165397 6708.668599 7322.950003 5125.698239 11516.476129 10155.489720 13826.458188 12951.688349 9516.820984 11655.900605 13487.074776 11876.248073 7395.217541 11489.349726 11137.809645 5686.756213 5578.561775 3215.515653 10196.812629 16629.285167 10370.592835 8986.362108 13951.477863 8709.366019 10615.518827 12831.292466 8466.468551 5408.242950 7706.972159 5464.650463 5231.365097 4498.990876 9584.299167 11544.104362 7696.448833 16709.812976 13648.549946 11747.240685 12775.521523 6618.523631 5256.829209 9131.765373 7709.929552 5374.245465 8598.024545 951.154276 15642.040782 3436.677726 9150.728350 8148.034708 3317.050269 8439.443785 9535.512713 9930.282445 5856.866570 3493.020940 7180.659469 6140.871623 3136.971683 3719.047470 7011.070560 7971.122459 6480.405085 10499.943952 7232.522724 11794.872812 7300.261689 6117.174314 3245.457252 5709.073128 7047.904700 4853.145840 4425.883559 5338.747570 9523.858962 9891.978253 5529.956206 5289.795282 7696.027145 2718.642920 5342.918206 5465.035935 3085.202112 6773.269577 4983.900286 4957.690860 3182.691101 3811.431689 4459.375166 3349.425864 6279.721859 4746.124197 6542.609757 3571.410622 6567.849011 3828.193790 8419.115188 3730.541040 4522.037568 3410.122173 2610.205002 3436.879655 1856.831169 4330.455049 7093.797547 4179.837697 2493.920646 3374.784331 4117.674071 6182.219367 5354.320782 4775.110771 7843.579372 4665.791072 4068.263701 5307.314861 5184.836886 1242.631076 3960.150444 7583.802159 2869.261925 4967.304619 1956.308477 4819.077672 2516.619576 5242.905302 3443.725504 8414.513136 4323.489282 4250.846839 2644.011448 1008.541706 1407.588452 2217.225436 1056.640669 946.693028 2895.641268 5618.944226 7291.109215 4191.086776 1763.457614 2101.417188 2198.510585 2354.816253 1537.124918 2674.839871 1731.505868 1672.837535 2362.358507 1135.397364 2984.782724 3158.258631 1942.775086 4797.009876 2842.234630 1528.924173 2688.334216 2359.565888 1426.794203 1356.020393 1860.538666 890.815546 1819.105711 1715.591116 3970.102868 672.023056 1661.732516 2412.874142 2022.914689 2854.778834 2655.677322 4729.283924
</DataArray>
<DataArray type="Float64" Name="Velocity" NumberOfComponents="3" format="ascii">