<VTKFile type="PolyData">
<PolyData>
<Piece NumberOfPoints="1945" NumberOfVerts="1945" NumberOfLines="0" NumberOfStrips="0" NumberOfPolys="0">
<PointData>
<DataArray type="Float64" Name="Pressure" format="ascii">
 27263.790966 26893.394861 28541.710556 29072.131186 30794.716047 30543.998050 29204.181407 29246.195862 28981.897500 29798.481752 27965.574729 29204.417169 27321.031095 28174.203134 26136.682717 27333.701802 27925.814867 29525.243283 28513.960535 29589.183549 27766.441411 28433.493273 28627.036884 28692.335768 29107.736067 28604.639515 28390.507683 27891.809079 27696.800999 27451.121111 25684.957361 26263.299663 27519.435075 27237.250387 26901.463999 26873.374380 27317.963316 27026.354238 27871.577140 27457.598395 26670.938869 25558.816014 26512.663525 25218.020552 25108.576644 23754.598331 26900.039809 24656.916349 24766.935687 23318.219122 25395.268320 26306.684133 22936.728586 24084.471104 27143.615058 25982.167698 25663.253841 23482.724432 25503.298892 24034.159291 25319.423464 24156.251678 23713.891804 23101.364325 24056.701650 25115.702124 21588.382451 22487.092508 21984.313603 23183.002782 20688.175053 21590.902083 26296.543219 24454.936240 25449.920862 23642.961951 24271.099213 22956.446474 24641.514813 25634.399356 23801.133895 23729.587238 24709.829464 22433.157540 25460.412286 23864.191058 23942.009190 22338.857606 22930.044022 20962.370581 22747.894685 22610.011949 20875.978956 20724.559462 23874.913049 22822.833123 21115.271083 20831.454014 22101.295319 21733.830437 22207.421779 22352.515408 20869.890916 22253.466699 18230.201765 19713.084864 20602.604891 21194.147836 19614.332725 20138.603749 20063.658124 21567.918277 18754.699013 20203.581438 19718.229722 20141.155249 21048.216057 19651.635261 20600.689889 19751.953107 19864.853132 19598.956335 18939.729782 18699.568551 20042.095702 20084.403662 16991.186896 18170.343055 17558.573547 18008.085650 16935.196211 17220.992989 18555.661419 19229.559629 17709.579854 18723.184824 16641.001632 17058.494757 18373.093743 17529.198427 18750.832703 17932.588673 18609.332198 17986.692234 19104.495056 19141.863589 18322.902182 18616.686498 18645.130438 18455.318998 19499.174877 18661.189007 18362.336895 17771.253395 17713.921816 17679.775046 18437.859858 18426.288513 18900.477011 19940.732474 17036.742548 17822.002590 17313.464947 18006.889353 16841.442472 18029.738688 17068.534355 17164.923030 18904.552850 18899.145166 18325.664987 18592.007727 18496.615132 19016.071948 19118.813353 19151.397100 19702.747714 19205.807244 19015.058674 18079.285991 18113.590903 17150.568919 17784.978396 17982.357635 17288.159335 18755.027790 17495.869274 18447.548650 18417.570119 17943.969964 17445.754329 17051.269018 17039.353164 17337.951119 17406.702336 17705.343361 17286.737984 17194.135154 16819.375367 16927.372180 17388.253750 17199.639009 17674.391252 17030.020179 16973.719416 16988.348052 18934.006649 19314.786291 21299.282591 21209.180812 26672.352155 26279.221600 25447.937536 23635.376682 21887.657571 19990.925666 18283.437916 16967.995042 15172.287162 13872.996375 13421.384063 12194.004088 8821.828507 3274.971201 37.155475 -348.397594 -1408.894795 -2761.756344 -3704.547057 -4357.360302 -4801.832996 -5091.971839 -5263.830320 -5342.882037 -5348.137825 -5294.374817 -5193.417646 -5054.939325 -4886.989703 -4696.351377 -4488.782188 -4269.184676 -4041.730352 -3809.956697 -3576.847395 -3344.901486 -3116.194220 -2892.431023 -2674.995276 -2464.990429 -2263.276893 -2070.504182 -1887.138807 -1713.488445 -1549.722972 -1395.893179 -1251.949476 -1117.772107 -993.281933 -879.033630 -780.089968 28912.158937 28057.933727 26466.906080 24694.311322 22827.030951 20797.925117 19305.057139 18175.086937 15342.082563 14629.321652 14533.307263 14130.679903 11739.754215 4835.469053 2336.235627 1335.978279 -1310.379272 -2679.108349 -3645.096690 -4314.010564 -4769.538308 -5067.210640 -5244.411391 -5327.448016 -5335.804753 -5284.529794 -5185.613208 -5048.835464 -4882.318732 -4692.895311 -4486.358174 -4267.635910 -4040.920569 -3809.766791 -3577.173199 -3345.652104 -3117.290618 -2893.804730 -2676.587169 -2466.749588 -2265.159540 -2072.472721 -1889.160964 -1715.536503 -1551.772976 -1397.923401 -1253.933779 -1119.641667 -994.691746 -877.958153 -763.858502 18183.834478 15073.964344 14691.634205 12867.663955 11468.817880 12255.055469 9761.969598 6895.910201 6165.463977 4787.169623 3002.559287 1912.290832 1164.545496 630.969865 263.235123 14.367776 -153.722012 -270.950182 -359.684491 -435.605529 -508.651821 -584.013682 -663.177651 -744.986633 -826.642606 -904.574569 -975.120001 -1035.004397 -1081.634280 -1113.237377 -1128.889565 -1128.465502 -1112.542785 -1082.281480 -1039.293824 -985.513654 -923.071648 -854.180390 -781.032118 -705.711306 -630.123640 -555.942369 -484.572284 -417.130831 -354.445070 -297.062494 -245.272828 -199.135472 -158.493940 -122.875033 -90.705957 18446.153918 15288.835812 14232.064977 12773.811174 11340.160650 10512.724105 8991.042025 7103.696239 5690.073267 4338.443142 3029.346403 1978.665882 1209.199408 665.182126 288.353332 31.884759 -142.328999 -264.250799 -356.366305 -434.515529 -508.819300 -584.665636 -663.745350 -745.098372 -826.101540 -903.325544 -973.211745 -1032.553041 -1078.792198 -1110.169095 -1125.754731 -1125.407894 -1109.683973 -1079.717807 -1037.095644 -983.726065 -921.716229 -853.257642 -780.524408 -705.586159 -630.337241 -556.443111 -485.304224 -418.036888 -355.469884 -298.154988 -246.389426 -200.250097 -159.652754 -124.529990 -95.764702 -709.645648 -677.241254 -683.774415 -652.957097 -617.919109 -600.712626 -537.443388 -535.351665 -470.621631 -470.847779 -411.512822 -412.085093 -358.811668 -359.398700 -311.896406 -312.445114 -270.271565 -270.774532 -233.474944 -233.932584 -201.065549 -201.479789 -172.623916 -172.997108 -147.753909 -148.088593 -126.084201 -126.383018 -107.269207 -107.534841 -90.989487 -91.224616 -76.951679 -77.158938 -64.888035 -65.069979 -54.555627 -54.714706 -45.735297 -45.873835 -38.230405 -38.350587 -31.865444 -31.969306 -26.484558 -26.573980 -21.950023 -22.026730 -18.140711 -18.206271 -14.950580 -15.006414 -12.287211 -12.334595 -10.070407 -10.110480 -8.230873 -8.264647 -6.708978 -6.737348 -5.453619 -5.477369 -4.421169 -4.440988 -3.574534 -3.591017 -2.882288 -2.895953 -2.317909 -2.329202 -1.859097 -1.868400 -1.487166 -1.494806 -1.186516 -1.192771 -0.944169 -0.949274 -0.749363 -0.753518 -0.593207 -0.596578 -0.468378 -0.471104 -0.368864 -0.371063 -0.289749 -0.291517 -0.227021 -0.228438 -0.177420 -0.178554 -0.138305 -0.139208 -0.107541 -0.108259 -0.083409 -0.083979 -0.064531 -0.064980 -0.049800 -0.050154 -0.038336 -0.038615 -0.029437 -0.029656 -0.022548 -0.022719 -0.017228 -0.017361 -0.013129 -0.013232 -0.009978 -0.010058 -0.007560 -0.007622 -0.005708 -0.005755 -0.004286 -0.004322 -0.003192 -0.003219 -0.002339 -0.002359 -0.001659 -0.001672 -0.001089 -0.001097 -0.000572 -0.000573 -0.000045 -0.000040 0.000563 0.000576 0.001346 0.001370 0.002429 0.002469 0.003990 0.004052 0.006277 0.006370 0.009641 0.009776 0.014571 0.014766 0.021746 0.022024 0.032091 0.032480 0.046846 0.047383 0.067645 0.068373 0.096594 0.097568 0.136352 0.137630 0.190179 0.191824 0.261952 0.264023 0.356097 0.358642 0.477408 0.480445 0.630687 0.634185 0.820138 0.823986 1.048442 1.052412 1.315403 1.319100 1.616087 1.618893 1.938355 1.939363 2.259709 2.257647 2.543406 2.536568 2.733847 2.720018 2.751295 2.727694 2.486086 2.449328 1.792583 1.738674 0.483246 0.407632 -1.676688 -1.778981 -4.973380 -5.107341 -9.747156 -9.916034 -16.395755 -16.591529 -25.394417 -25.539927 -37.426141 -37.037533 -54.398921 -50.237076 -69.800165 -61.848347 -76.488200 -67.978478 27883.541834 29304.768940 24026.569045 29280.857402 28906.491532 23245.088487 26145.126351 25959.819828 24788.571955 22129.626226 24778.269729 28748.050973 25270.218208 22957.261080 29216.000209 18811.280089 14717.270152 23032.971119 19805.889702 20366.360488 22207.581127 21476.049571 27806.367658 25238.065116 29340.535119 28462.433473 24642.369451 28941.591734 19079.778903 23311.302911 19645.416802 7882.357925 26291.950751 28765.377752 29169.301879 27944.363362 16821.101982 22609.497790 26542.314489 22085.980647 14857.157702 22414.559240 14074.608723 25378.841682 20497.226261 12709.030371 28729.839215 29169.599135 27991.284038 21913.667981 25692.294841 23151.682337 14871.721481 20588.779797 20398.092371 22356.445939 25448.846067 27436.114661 28539.004916 27051.447975 22502.294499 27469.708814 25029.424900 22232.010828 18433.138467 27529.544628 26595.472630 22686.728076 28789.280259 27032.795581 26801.886529 24103.882123 24096.390603 22588.665943 21803.050496 21495.248354 12058.107281 25211.291860 26267.568844 25695.726595 23742.781554 27530.722956 22268.169465 18539.128353 24790.592516 24189.654957 15441.491524 18473.550783 26849.336756 26659.805912 20775.917712 25873.282437 24269.466324 19657.953288 19144.962230 23877.111951 21873.218146 13319.803104 18650.938502 26686.391926 23069.861996 21121.880610 23789.999584 16463.397908 24953.901150 15936.631626 22616.168276 23612.031116 9512.041491 15280.662521 25743.279688 23464.650051 24815.400159 8481.244610 24762.035851 15413.396955 21199.252630 11544.111699 13743.931953 10330.528155 8074.308584 22980.502193 23760.686631 14367.623855 23274.483320 11612.370639 18283.731691 12767.306893 15995.657715 16539.879944 17858.758910 15062.017931 24496.519837 22637.498976 22081.448598 18898.319943 16418.295774 20293.199782 18259.073764 11695.098983 22193.466776 23151.834287 15835.557361 24085.402199 23153.112669 24360.168321 24869.137680 21755.747477 20786.202638 18703.889728 16081.386119 20555.488598 11336.118228 14217.538400 24459.475461 22038.805724 26259.699593 23114.827178 17286.164421 24350.048841 15306.968085 14202.022369 7376.893479 10323.380566 10715.516564 23715.627185 25075.319347 23550.190142 17873.986643 18006.651884 14679.633811 15740.929552 11094.623751 5057.342797 6460.551160 2933.776088 24430.437053 24298.274756 22485.818890 23518.784362 20176.556992 18876.561642 14555.991769 17125.319531 11632.907449 3195.777708 6164.623259 23275.009060 20869.656625 22508.211756 17975.904039 12028.394984 7373.889047 7316.083753 9265.214627 5767.295857 1091.987197 6143.835179 24160.412943 22363.103356 20045.664263 22320.325831 17990.975298 9199.592795 15821.052088 7966.730751 9686.851166 4581.137387 7143.988230 23957.139914 23780.415503 21221.632231 22052.197886 12206.938437 10447.070211 9904.656840 8095.870408 4346.831763 2057.222131 3712.565154 24382.723582 21394.073197 24220.404534 19515.989714 14256.755578 7950.130524 7023.006460 5366.324722 6907.192997 4104.241016 3866.174912 24327.582923 21603.704284 17982.515226 15793.017544 17111.128215 5804.696601 7222.546580 6372.066506 6077.036252 4420.885182 2373.046354 24749.539329 23910.927069 22198.357527 13828.581401 15530.017389 14852.909220 6804.289659 7503.461245 6748.336588 6063.548594 3273.068044 24443.172871 22061.933458 19062.716618 18010.211742 8854.339673 12625.131972 13836.004075 13938.777447 9350.718005 5760.698833 3057.921579 20899.477041 21307.928394 18487.073049 17956.562642 14640.760134 15653.269977 9168.324152 4653.255435 12726.789696 5304.218923 4027.261200 23374.699486 20334.365393 20324.139054 21395.368129 18399.740981 11952.912837 11981.272248 8876.092710 10217.802230 9080.472241 3827.838591 25445.092813 20608.040809 19066.666153 14435.482492 20798.149147 6650.164767 12645.708531 6541.564143 6521.971438 6088.085809 3726.575368 19623.525522 19016.450066 15019.200838 18784.934574 11857.581933 16530.791819 10365.210751 14622.830176 4697.406236 4323.994137 6965.561047 21914.280937 23030.386573 18287.497613 19135.537504 17303.342929 10717.319281 6678.339813 10187.232409 6584.290362 7868.032797 2546.838254 24417.407722 20829.398704 16785.330882 13392.803372 14685.396157 8846.670198 9915.470873 6955.143884 7651.399732 8596.458135 3298.780117 21948.247642 19233.048949 22461.106660 17089.737565 16220.663602 8033.213441 10276.955986 10542.817099 8119.828932 6291.531438 2809.512148 22492.697726 21773.430117 17949.914832 18665.522975 19345.134800 14106.355043 12189.863320 9459.739449 9914.455062 8318.037819 2773.253986 21947.434639 12647.827072 19937.020348 15625.261968 18828.045928 13640.013912 8075.216415 11621.751078 5662.945933 5888.885180 5044.118620 23671.006386 21427.691300 21617.842803 17139.206579 15343.043977 11716.573972 11411.140102 9282.477259 5318.913208 4989.168201 4590.492725 21630.769921 20773.567090 19023.855425 16856.272799 18074.301724 12178.027694 13647.562640 6903.833971 5810.388921 4812.656853 5267.338554 24872.549429 23212.935318 20132.513640 18588.375891 17247.832009 15464.834271 11940.252079 13054.213360 4901.403570 5169.971355 4215.331420 22403.335599 21377.240663 14847.956165 17815.159048 21763.729659 14239.431820 14488.110263 12561.694155 9465.385056 6276.947133 5234.286796 19980.707481 20718.802403 21368.447946 17541.133468 15124.918473 9659.443901 11681.419942 10988.761178 15821.293590 4614.234612 7034.231198 22189.485892 21452.149386 19260.773828 14164.804921 15534.374301 9015.451315 9134.894288 4910.422616 8383.083311 5351.624404 2911.654258 21428.785192 18650.773602 21251.588199 16396.408720 6354.038545 10428.293799 6270.241435 5726.142777 4013.924486 8571.251612 2504.122810 22608.927481 19714.251295 19329.224384 19555.215606 16830.450285 11261.316971 7461.364465 6871.801172 9549.365431 3762.591379 4481.875128 19265.477668 21040.846132 17198.615786 14344.818538 13425.821394 12528.864314 14997.010738 7608.359195 4817.752161 4731.098383 3925.165129 20078.463393 20976.792854 18558.977928 13988.511689 15671.604940 10656.664551 10836.747540 9327.106467 8556.888456 5292.450087 5790.978351 18501.535943 18784.758885 18172.327676 21315.781639 12201.054821 11672.062091 8212.177294 9947.181608 6455.737475 5454.830556 2674.424503 22371.919536 19443.170050 17404.597080 10970.323206 13678.805764 12122.904322 8726.535064 13807.425073 8006.408396 7395.596409 3649.243019 20308.145935 19564.381108 20976.450287 6844.654237 8430.941089 7878.015820 9336.155689 7539.465019 4654.689695 7730.468555 1917.257418 22330.031534 17581.178384 14567.897006 20525.541723 10860.886436 13932.825916 13031.560521 5047.472344 5740.779032 8591.433148 3956.413008 21844.132877 21774.743612 18948.551566 17945.857085 12693.356995 13490.510696 6556.301137 15606.976170 6477.659309 3050.256899 3091.571108 21279.334098 22151.618850 17927.697735 15477.071920 11616.161412 15016.853702 15030.254714 4898.554058 10210.195348 2911.964403 3895.835194 20857.495303 20041.516424 21003.976246 15229.658710 16170.731461 12875.431086 15325.370669 8726.147090 11472.427710 6091.269535 2606.960880 20038.533241 16570.828560 20264.269658 18558.288514 12600.412286 14690.378520 11037.816600 11761.041781 9559.487205 5822.965068 2167.733561 21631.049532 21171.442125 17703.448810 15266.221725 17431.341248 13324.055361 13443.102103 11283.151743 6470.989327 3451.843666 2176.440300 22263.220649 20088.694549 19599.182490 17888.802745 17291.071828 13285.911212 11497.215790 9313.153531 11310.861377 6307.505117 4461.862330 21740.640009 22122.153446 17721.454852 18357.196109 17779.518966 15736.898322 8746.654041 9127.397385 5648.717508 5720.527475 2824.848699 21927.259771 21477.905444 20512.879855 16843.265960 13572.612604 7608.551003 8378.230549 7820.803144 4976.042405 4251.478379 6038.791723 23030.152725 21177.265154 20229.317036 17954.563214 11015.872231 10482.306917 7117.718619 6006.278268 4696.212265 3661.327271 2911.433421 20340.874957 21366.599898 18667.156200 14384.849794 11428.752588 10021.872422 10319.691639 5915.559029 7076.798957 3617.557498 4212.090780 21395.066643 21932.754106 16617.855137 8303.192694 16101.189295 11174.530976 10279.499621 8052.056196 8755.119890 4952.628245 3538.651085 20804.010908 18285.385500 19361.188986 17278.562169 13480.057742 12739.759628 11188.447805 15560.126924 6559.867227 3925.520561 3034.239750 21488.110150 20053.563392 19371.406828 17510.768759 14180.117854 13399.312371 11548.244669 10139.105554 4358.706603 3628.409857 5407.860568 19368.310276 16425.931073 17875.043335 16970.653201 14540.158190 13265.715305 8481.050724 4047.728017 5529.639505 4870.753598 2826.627722 19223.495352 18331.164802 18632.649241 16176.582708 15243.454721 10433.510625 4972.050555 5344.474017 6120.491681 3701.445251 2159.517596 20633.172806 19685.916666 18478.171341 17026.713499 12993.273927 13420.412993 16071.721428 6556.122425 4317.665235 3125.941890 5014.234011 19278.372131 19747.309960 17059.606920 15815.294462 14866.084755 11911.031220 6773.956413 8141.273631 3798.937997 2741.123624 4369.041644 17092.639248 18699.666829 19154.728327 16374.605167 13284.598579 16135.539668 11802.530507 6900.605967 7497.340213 5355.870097 4224.299719 17834.419664 18382.206333 16820.383761 15614.108645 9841.296773 12439.819259 9565.112898 6830.677616 6240.625300 6910.886226 5179.349393 18981.337607 18121.033738 17256.867614 16628.995197 12281.981924 13984.831743 10292.404065 7395.261778 3994.920294 3870.145450 2727.782755 17887.793401 17747.978885 17095.103499 16594.537098 12403.765589 9192.351350 7741.111280 6626.843028 5090.817897 5358.245882 2173.348801 17866.960980 18807.536817 12030.658637 13541.816746 10746.467545 8973.754570 9971.909369 4676.809405 8430.571075 3704.590009 3584.795566 17340.241897 16451.033594 17002.637358 17032.231520 11673.083454 9175.242646 9069.745014 4525.940198 5554.697676 8044.500584 5165.335428 19423.527765 17085.845777 15365.007757 15149.081861 10089.351876 12703.839842 6862.072552 10580.287428 7465.260292 8396.980586 3168.206123 17448.016171 15920.056954 17441.871258 15814.637079 14484.720443 12036.011096 8806.390041 7483.424662 6761.531708 7603.202919 7463.315705 17637.292567 15876.475730 16128.359595 15009.208482 9060.010054 12079.571615 10878.179277 5810.346598 10417.741481 4785.463587 3768.093569 19525.187996 16065.026363 13666.457889 16690.783651 14817.009472 13366.504992 10208.604032 7270.421418 6460.206469 3605.760919 3337.229639 18439.885994 16374.236727 15133.258038 15633.291507 12360.951481 10168.096503 11206.891840 7872.169870 6689.286612 6472.998284 5151.137082 14516.265327 17807.530742 14398.271651 15695.755046 13184.358201 8273.195482 12925.310936 6179.492350 8124.878929 9862.439438 1608.864396 18308.111939 15745.434610 14355.877052 16600.615808 14105.738936 11935.846140 10432.779959 8305.337089 7337.668498 5490.518169 4249.108172 15266.859790 15497.961013 14515.936262 13985.944765 13919.442133 13184.618556 8605.983071 9119.183369 5678.735698 7149.086106 4701.403783 17655.838152 15741.726290 15835.813721 14938.904216 15459.222177 14631.290636 14322.379407 11188.710135 9232.284118 6046.975937 3705.962627 18503.232790 18656.591387 14498.047009 15542.493093 12133.077799 10099.212014 11610.553101 7052.851200 8799.191125 3022.841437 8469.908479 18217.810206 15804.607850 19686.577303 14763.557420 12793.811586 12388.343163 9891.020799 12008.790223 10301.375167 4080.726664 1145.384204 17700.107516 19572.932136 18726.384347 14671.570996 15543.957224 15125.931966 12513.707094 10616.739137 10119.079473 9408.290758 6838.708706 17516.504913 15264.287631 17196.314613 14658.082945 14803.892713 12698.032648 11023.939843 8515.948928 9823.204155 8073.774264 3102.807625 16970.767748 15908.417564 16315.716781 17283.327298 15539.252777 13926.051522 9676.623314 11310.149805 6855.954802 7166.474689 1313.006497 17142.423065 15415.004966 15976.850403 17544.001882 15281.525435 9797.250294 12603.151015 8335.829923 10083.947004 7665.359249 3749.576726 17890.415334 17005.369316 14006.227661 15471.324920 14372.867682 12238.407359 11728.459002 9946.731807 4640.684991 3420.324055 5470.948988 16929.389172 15412.666119 15486.151573 15936.203778 13747.964678 12942.393284 11611.301410 9342.562056 3233.744978 7682.035310 7937.346613 18581.819162 17272.451010 14685.461498 15342.841690 11280.975803 13398.644435 8652.019376 6152.246007 8937.790226 4993.412929 2005.721210 17111.102418 15775.094473 14578.471292 14329.936911 13926.078522 12001.009692 11352.115455 12381.113442 8886.609473 7816.371997 2275.791291 17887.074701 18922.016147 13536.908251 16015.323260 9853.414009 12236.361887 12621.548827 10463.574504 6350.208543 2496.100161 4986.663374 18651.163032 15475.834679 16501.488328 15993.363197 11972.681153 11822.583029 8222.983260 11046.862446 9233.599448 7314.323461 5486.248658 17659.102044 16458.731480 13489.416830 15908.811169 11841.400140 13011.065696 8758.992123 13373.068779 8908.749655 5262.502950 7551.940783 15878.436515 16534.372948 17946.123003 17766.313249 16981.549214 10615.933592 13678.510519 12829.770222 9497.380006 5923.876840 7290.257566 17421.818844 17114.831690 15399.157083 15592.692162 15003.203256 13775.894209 9179.107720 14554.722871 9540.358595 9830.354985 2446.796363 17518.543525 15689.845090 12667.102309 12769.505251 13874.552108 13822.898566 10432.895252 9622.655738 4021.602395 6542.200181 8673.567414 16953.333653 15028.217918 17639.186876 14205.049057 13849.910168 10870.451553 9424.550070 7178.774127 6139.001777 5510.372684 6222.205966 17717.821228 15130.824953 15373.208394 11219.220683 11709.779771 11910.402252 12944.640117 7910.458107 6008.676941 7993.879166 4009.341978 17753.599322 16959.359618 16561.242894 15265.831142 14111.897381 8699.632150 9843.712644 9352.746314 7454.209171 3791.648154 10672.522308 15338.186190 11416.666136 15569.971952 15118.113671 15088.830419 10867.255019 16163.718124 6977.798794 8986.947822 5717.401185 1863.927908 15678.068085 18751.382642 17013.507268 15248.095494 12953.289442 16634.920051 12909.278132 7296.416839 9181.157047 7031.372473 5516.702201 16500.629588 16113.710094 16202.331801 13002.520013 14470.588098 10832.463184 14404.056167 17907.879611 6120.925426 8657.616887 4613.250089 23329.789787 28517.862728 28449.372791 24119.619593 17897.117516 25510.625913 21595.033408 26884.795642 25830.227686 19807.997848 18249.929642 14755.644422 10347.657923 1292.933093 25809.790224 17837.646592 25939.296483 23705.720398 13311.413504 28368.959519 18285.893099 14626.791266 23833.968198 11442.061771 14292.544201 13125.627693 7220.261574 17945.446846 13018.546167 16692.712272 19505.534660 11598.235669 11635.462142 12143.656720 16339.325751 14410.715443 19667.559489 13746.335952 9148.988569 10314.417499 9075.557529 7876.228711 17848.806995 13525.500519 15585.750238 17661.446266 18107.447095 16005.434050 17328.183969 18874.809349 11761.554526 19906.646126 17907.606881 11719.399998 11523.620584 10217.647848 19319.775744 24630.188377 13828.754373 12618.260914 20490.017278 16449.778467 17826.852367 15323.302261 17735.114699 8254.665407 13637.732339 11676.365580 7844.840747 10929.200450 15171.944474 21509.311125 15730.004298 25408.522549 19380.090185 20089.925336 21997.170077 14615.078854 11800.578276 12318.500018 11295.404157 11155.746161 16159.398462 5586.677672 25095.827630 9300.749065 15590.233053 15895.256495 7211.051922 19205.206827 17873.083456 21858.004228 10111.726520 10681.596309 10682.851977 10052.738680 8976.529858 6113.798454 12551.399503 11594.131371 13063.382759 19518.854725 13993.438924 17260.368358 8563.273221 9887.090512 5099.100006 10168.060378 13440.242639 10052.388291 8428.383786 6905.603560 18434.274731 18176.034735 11997.269077 6323.381920 13188.688665 9880.805192 8702.112985 9461.818621 6431.376692 12390.648973 12276.534009 7949.340453 5331.013541 6975.300998 9278.438260 12641.452887 12671.652623 9807.481121 14113.839167 8060.357890 13633.882305 9445.739479 16842.863483 6396.477384 6864.787639 6946.372069 4523.735819 5981.575538 8754.451253 10354.172144 21632.891442 16585.051635 6518.223661 9606.030534 8615.926248 16519.399079 9412.100425 12784.808182 16104.426666 11237.445960 5500.985062 8489.277534 12053.249026 5405.074799 12711.488017 19506.529155 9031.239591 14328.547665 7956.037980 13439.817104 8254.233988 11860.663969 9558.816344 19183.185645 8539.339206 7231.701513 6703.058816 3454.802773 5264.515514 13789.696942 6010.166594 4589.256753 10685.643861 17736.182580 16426.169567 7659.440255 6571.940649 8482.306595 10427.295186 3375.488804 5284.770825 8711.271191 6326.254846 3921.060119 8247.117823 7396.433088 7890.780405 11649.473075 7831.152865 11878.703628 8953.679377 9049.212995 5830.163056 6735.360540 3048.919403 4180.387835 8063.752938 3164.818143 1903.599122 1686.346537 7765.490100 2789.564427 6115.816314 8421.241186 6714.532618 -100.100794 3316.455787 6332.095965
</DataArray>
<DataArray type="Float64" Name="Velocity" NumberOfComponents="3" format="ascii">