<VTKFile type="PolyData">
<PolyData>
<Piece NumberOfPoints="1945" NumberOfVerts="1945" NumberOfLines="0" NumberOfStrips="0" NumberOfPolys="0">
<PointData>
<DataArray type="Float64" Name="Pressure" format="ascii">
 3025.552835 4701.160410 5081.353657 8906.743532 8916.175944 11782.718912 11787.979535 13723.394111 10209.358670 14110.013424 9638.413257 13076.432040 9597.813744 12065.058434 8864.892610 11027.566476 10169.148974 13928.554508 9852.167119 13385.145321 10238.083467 12032.238285 12696.381592 16152.575710 13591.863865 16346.751249 14802.491195 16703.879887 18133.794186 20500.997299 16645.406115 18922.944229 16787.920221 17543.508149 19628.710662 21775.458180 19719.286519 21012.319523 19665.836967 21054.401438 21375.445329 21129.227356 25367.409347 25070.193375 25176.775441 24026.581953 24002.963862 22484.628758 24495.293828 23500.957486 26408.590086 25877.894755 26970.284972 26684.964258 27464.706551 27197.625401 28585.318082 28648.986337 27850.518101 27599.197726 30855.576867 31892.181208 30996.541633 31530.906336 33475.082017 33216.498778 33700.167248 32473.744747 35778.287874 33823.650045 36435.008804 33840.228518 36507.070792 34003.163242 34314.429171 32069.939840 31812.448759 31424.501288 32332.305811 32108.563070 36530.969886 34928.597226 38968.310956 37034.266148 38834.292255 37597.325192 40070.375941 38258.655018 39131.132346 36047.860688 37837.892566 34630.664794 41766.820861 39120.556614 41741.151381 38987.923674 39586.625070 36341.494789 41229.142411 36521.042848 41933.606366 37377.082686 40922.043061 38910.564870 42152.654836 37936.575400 41788.002993 38721.435628 36830.351927 34275.203018 38205.342886 34371.676142 44762.830889 42385.940248 38375.225792 35878.066733 38707.835820 36954.607607 40334.342210 38859.879648 38453.742624 37760.821629 38085.781167 36838.119947 37888.440435 35237.148215 36506.090084 34385.064385 36740.220987 34396.122394 33504.334994 32915.350802 32180.801675 31059.698655 32234.813243 31200.234524 33197.853731 32249.339131 31045.113455 29420.470533 34687.665636 32995.356924 30689.946702 30601.294415 26997.627523 29081.874185 26992.108425 27124.692203 28096.926056 30319.487508 26970.267538 27983.610742 25974.173740 27370.955611 26699.026497 28402.408131 24839.726998 25296.148049 24913.712836 25956.532267 25201.017986 26321.318719 26026.195127 27083.296059 25402.607460 26560.103892 25129.020117 26639.720266 23589.447823 24790.431072 25018.708106 26546.161787 24862.169555 26303.630744 25276.601184 25682.546437 25805.969791 26568.162430 24639.749467 26132.352914 23622.944710 25199.040748 22770.252449 23976.241951 22766.690962 23369.055660 23853.166971 23382.014371 24584.249491 23455.479166 24744.978910 22521.738223 26423.691755 25855.543617 29135.049450 26469.566274 29685.634852 25533.312706 26985.672598 22576.545769 27471.944391 22146.515184 26242.877678 21573.569488 24174.326019 20080.995651 28726.937171 25587.547599 33840.742572 31985.378159 6066.376261 4168.535604 1885.660206 1023.222306 766.975730 -920.409039 1090.220762 -38.372858 -2962.167511 -407.177300 2270.016418 -1930.526800 -3465.520662 -1543.358387 5.808981 -2361.638287 -5536.243357 -5043.032037 -3543.814303 -5362.089359 -9031.599318 -9747.702552 -9223.524386 -8549.226788 -7815.512244 -7048.719082 -6280.167429 -5534.864582 -4829.954305 -4176.156007 -3579.473338 -3042.477246 -2565.211600 -2145.866150 -1781.311202 -1467.537306 -1200.015880 -973.987207 -784.681515 -627.480723 -498.030035 -392.308939 -306.670528 -237.856805 -182.996257 -139.588701 -105.481450 -78.840824 -58.127413 -42.114404 -30.206430 13635.749410 9686.413495 5640.174359 5892.208654 5654.659333 -70.496071 5971.521524 -1440.881802 -8097.150125 -903.741061 3081.328850 -3199.824904 -4329.388021 -1205.233865 877.146610 -1929.538059 -5904.990838 -4767.765364 -3005.887280 -5348.595129 -9423.497196 -9542.535028 -9100.127872 -8516.750736 -7805.638960 -7048.536160 -6285.803960 -5544.181576 -4841.452002 -4188.774696 -3592.469742 -3055.328961 -2577.553551 -2157.450885 -1791.982656 -1477.211170 -1208.663336 -981.620939 -791.343827 -633.233756 -502.948013 -396.472226 -310.161201 -240.755440 -185.379653 -141.528251 -107.041659 -80.075569 -59.059574 -42.607054 -29.162817 22445.945375 17595.006497 15694.639356 12500.105682 12673.815928 12896.298815 8663.313527 4651.296975 8997.810908 8810.255667 7205.306379 4174.026949 2197.145059 1392.940231 1042.135720 866.062533 739.789698 622.571808 509.454892 405.598021 315.776379 241.767345 182.847401 136.978263 101.755815 74.938983 54.652631 39.407089 28.042190 19.656149 13.544393 9.153963 6.051053 3.897457 2.432464 1.458093 0.826585 0.429716 0.189780 0.052125 -0.020857 -0.054448 -0.065202 -0.063644 -0.056223 -0.046704 -0.037140 -0.028525 -0.021222 -0.015227 -0.010237 29170.410711 24622.574740 22034.889302 19505.103201 17192.880111 15437.838568 12773.297671 10420.804200 10420.377928 8907.135067 6455.727917 3972.815475 2342.544694 1490.610581 1088.430285 882.886756 744.456101 624.081721 511.167375 408.113570 318.740105 244.713366 185.474493 139.167474 103.507987 76.311024 55.715926 40.227278 28.672711 20.138477 13.910510 9.428896 6.254768 4.046081 2.539048 1.533117 0.878340 0.464643 0.212781 0.066849 -0.011748 -0.049053 -0.062198 -0.062128 -0.055593 -0.046573 -0.037264 -0.028759 -0.021492 -0.015554 -0.010986 -22.713075 -19.407797 -20.986858 -18.034522 -16.278240 -14.822795 -11.274763 -11.151774 -8.007012 -8.060232 -5.682305 -5.746156 -4.010123 -4.061202 -2.811047 -2.849138 -1.956865 -1.984676 -1.352792 -1.372876 -0.928746 -0.943124 -0.633260 -0.643470 -0.428857 -0.436050 -0.288480 -0.293508 -0.192762 -0.196249 -0.127955 -0.130356 -0.084383 -0.086023 -0.055290 -0.056402 -0.035996 -0.036745 -0.023288 -0.023788 -0.014972 -0.015304 -0.009566 -0.009785 -0.006075 -0.006219 -0.003835 -0.003928 -0.002407 -0.002467 -0.001501 -0.001540 -0.000931 -0.000956 -0.000574 -0.000590 -0.000352 -0.000362 -0.000215 -0.000221 -0.000130 -0.000134 -0.000079 -0.000081 -0.000047 -0.000049 -0.000028 -0.000029 -0.000017 -0.000017 -0.000010 -0.000010 -0.000006 -0.000006 -0.000003 -0.000004 -0.000002 -0.000002 -0.000001 -0.000001 -0.000001 -0.000001 -0.000000 -0.000000 -0.000000 -0.000000 -0.000000 -0.000000 -0.000000 -0.000000 -0.000000 -0.000000 -0.000000 -0.000000 -0.000000 -0.000000 -0.000000 -0.000000 -0.000000 -0.000000 -0.000000 -0.000000 -0.000000 -0.000000 -0.000000 -0.000000 -0.000000 -0.000000 -0.000000 -0.000000 -0.000000 -0.000000 -0.000000 -0.000000 -0.000000 -0.000000 -0.000000 -0.000000 -0.000000 -0.000000 -0.000000 -0.000000 -0.000000 -0.000000 -0.000000 -0.000000 -0.000000 -0.000000 -0.000000 -0.000000 -0.000000 -0.000000 -0.000000 -0.000000 -0.000000 -0.000000 -0.000000 -0.000000 -0.000000 -0.000000 -0.000000 -0.000000 -0.000000 -0.000000 -0.000000 -0.000000 -0.000000 -0.000000 -0.000000 -0.000000 -0.000000 -0.000000 -0.000000 -0.000000 -0.000000 -0.000000 -0.000000 -0.000000 -0.000000 -0.000000 -0.000000 -0.000000 -0.000000 -0.000000 -0.000000 -0.000000 -0.000000 -0.000000 -0.000000 -0.000000 -0.000000 -0.000000 -0.000001 -0.000001 -0.000002 -0.000002 -0.000003 -0.000003 -0.000006 -0.000006 -0.000011 -0.000011 -0.000020 -0.000020 -0.000036 -0.000037 -0.000063 -0.000064 -0.000109 -0.000112 -0.000187 -0.000191 -0.000315 -0.000321 -0.000521 -0.000531 -0.000847 -0.000862 -0.001356 -0.001377 -0.002136 -0.002154 -0.003329 -0.003282 -0.005278 -0.004721 -0.007215 -0.006089 -0.008095 -0.006858 12750.214145 12562.995200 9873.937174 12571.024128 12102.302367 9599.754981 12609.222749 9533.704794 8506.571871 9642.734176 4762.983019 13895.125744 11417.489212 17430.290455 14740.767888 7527.217025 8615.127944 10007.613009 10470.969062 10403.621341 9696.921675 11384.913717 13689.413916 14667.820410 13236.353497 9951.187499 12246.466335 12749.102197 9634.146487 8460.203865 10704.573234 5523.918376 10430.433451 15858.454562 13739.057499 14701.511264 15101.103236 14188.367201 14957.128259 12522.693810 7789.092270 14482.795888 12697.110271 8922.267188 17664.130491 13086.005010 17272.381299 14100.028720 16703.408850 13932.008814 16372.123236 15513.085584 9485.321758 11310.184163 11165.689071 18415.337055 18838.182735 18926.145350 17291.123723 19688.454080 17187.777516 17085.988733 14651.219839 12782.895460 9916.657429 16687.494668 17340.393390 18359.596611 17576.235418 21296.899798 15813.692577 18121.504641 18201.193625 19292.572657 15168.807879 16033.864063 12380.064074 20668.827455 19236.054208 18746.240381 20912.863253 21080.178801 17664.688255 16890.291586 20948.844193 14992.310624 16086.985388 15529.008929 21380.330991 22223.263006 22372.459421 22417.841936 23847.372094 21849.137270 22380.700432 21377.771556 21091.000175 17973.567754 13760.224295 23124.537470 27052.399839 22869.680074 23597.413557 23650.363399 26702.921230 19948.483797 20414.869011 20478.631187 15237.916239 17181.586494 27905.232293 23638.616123 24594.417101 18790.483638 26782.296269 22159.300133 23647.238916 15791.959762 20465.812761 16389.469178 14825.524968 26647.531614 26944.220666 25291.060671 26132.769412 19919.363569 23990.035235 18060.842796 21959.549632 17929.510458 21276.101396 15786.667448 29758.692706 26507.461071 26026.758563 22626.532454 24874.987775 23827.997206 22975.807204 18873.133472 21104.520951 17842.959500 11037.868875 27686.858996 28566.109086 30237.633019 29049.142734 24975.784257 23584.135392 20926.409593 22311.732174 20954.922801 7755.811596 5246.974945 32042.624798 30539.829771 29270.180158 27240.029156 27303.637304 25937.935301 18965.029487 20323.640068 8451.783840 12376.850120 2393.127152 31753.561183 30101.809825 32042.442946 24753.860203 18085.546884 16222.909526 20078.204950 12923.947153 7604.274634 1250.768846 2375.288387 28289.755141 30992.098469 26863.813335 26376.781557 25295.484371 23662.663135 15379.328002 18903.044264 1511.865620 4026.812289 679.932785 32143.176104 26814.371524 25729.687293 20264.332136 16434.970273 11588.599712 12071.394414 6200.252679 1136.337392 845.907295 3736.532644 32298.851312 28825.067356 30567.606710 25364.407927 22338.036111 21250.605776 10887.649031 4981.634126 4285.952770 2428.706099 1565.747461 31319.218542 32108.195683 27806.605201 24357.762571 22606.480712 18032.671339 12262.948656 9832.884194 1196.070990 5854.425944 1251.368405 30400.026118 30745.087792 30282.181331 26113.655158 21872.181910 16555.270679 11914.180464 -1490.556800 5937.867375 1346.266414 1268.150297 32810.501742 31835.169736 28609.044092 26911.977926 21979.957889 11953.449828 5196.271768 4998.692689 9010.548085 2184.897898 1669.690750 32913.185521 31842.247621 28889.214222 22997.572241 19597.547917 16988.124574 9816.286233 9358.742789 4031.276616 2744.676910 -887.236632 32608.994378 28173.960724 28772.691308 23458.635528 16021.226106 15794.792006 13500.870815 7759.629464 3100.636295 3119.146483 -180.221171 33487.111517 29219.986274 27409.320939 24722.526941 21718.734640 19494.385361 11493.691347 1392.838258 3063.646099 2047.204990 1347.407053 36041.516122 32169.814325 27868.608354 28941.675085 26290.705175 12787.490488 13882.336433 10201.327857 8115.983202 8555.110986 2335.493484 33713.346253 31060.324298 25272.731955 23219.555761 24810.595847 15173.243984 19942.629567 6808.045183 8212.949604 2111.366625 2144.671923 34400.027962 32738.234188 27414.200062 23563.009294 23483.449190 21712.478099 13952.274281 7711.048386 2437.886644 -1594.136102 6044.136377 36291.954572 33368.178373 31752.983234 25312.682546 25571.521420 14028.184173 8444.053659 14688.707221 9955.253898 6015.659404 652.755786 33626.356892 29476.807291 29950.375960 21495.634492 18570.087805 17288.914911 20362.358479 10872.329960 8922.011513 4165.345532 3941.252809 36032.581737 32297.430602 30943.282751 26019.935598 25828.988176 18019.403846 17914.059289 5501.777695 6440.499904 3909.002764 4658.539407 35851.254128 32679.582676 30638.793483 32342.698908 22282.951661 21041.970498 12664.166909 11851.785354 8550.569951 3752.603724 9321.453171 34358.733317 29004.452469 30023.423549 25887.990505 23135.899422 18640.155934 15583.437982 14296.766810 8013.017818 6608.811570 5742.354009 36945.485146 36075.959067 30093.420032 23211.715298 24573.804428 22187.828834 19380.344399 11783.666569 10607.963107 6649.981379 3269.433449 35624.275684 31999.785796 29100.110665 27469.400984 27234.297686 19463.697610 17169.102175 13412.497854 2233.661232 6770.306930 -4996.324307 37420.031945 35270.586456 32214.770666 31863.736458 26591.342248 24267.222544 19289.885541 17098.858891 11574.401807 11527.959116 -648.508685 35545.578626 32840.662026 29498.011503 24698.727352 27405.914413 26373.665934 20271.378507 13456.477728 10408.180402 7700.372644 9056.341580 35684.688843 31320.691977 34142.301025 30105.564875 26278.739531 22612.428388 18266.683420 19834.203834 11164.240617 8212.040436 9524.739862 36341.001006 37478.443712 31867.988024 29533.993961 26092.007758 18756.767354 20893.742675 12447.693817 9952.227881 5390.503929 -7883.759150 37432.648873 32891.994593 31073.914719 28370.239042 25187.777165 17564.148415 16100.149020 8429.735828 10547.002356 7646.145455 389.903785 38200.453615 36587.365244 32047.317868 30465.552602 26817.985377 23060.237267 17177.261503 14140.112395 13800.255725 3635.337706 3042.108359 34544.867291 35861.346431 31569.828292 28859.807156 28528.741148 20810.483400 21457.466694 14480.049171 10665.658217 6100.958696 5497.993404 34764.774907 36764.516556 30665.700527 27523.120537 24151.998259 23976.788090 16984.701306 12399.324193 7928.828158 10591.274626 5922.247346 39833.681798 35837.234043 35767.610767 29317.910503 26349.970293 28151.365999 14313.637168 10654.160722 9487.634746 6202.076734 -8780.784892 37317.522187 36871.010825 32957.579860 28923.631336 24715.655643 20954.900117 17915.315240 9985.394184 9718.829990 6516.841443 7685.040418 35938.760607 32524.379837 35179.332570 28234.139116 26063.747514 19063.375013 13232.573821 13486.037596 4195.029628 6025.009283 -6900.359272 37224.277911 33242.188826 30114.344786 29760.133762 26723.793774 20587.915858 17556.032208 8191.176556 6978.439937 6295.890312 4422.658993 37429.795200 33202.395814 31818.507571 30319.373847 28161.025397 22220.314174 13764.471353 13291.604901 5890.164969 3350.513167 7782.692811 36111.858953 34121.226866 32523.060241 27363.590215 27830.019000 24183.784117 15807.635558 14571.081002 7503.915985 7490.611137 2150.349551 36861.182054 34481.101791 32707.681829 27703.400287 27167.174500 23263.723080 17028.358519 18201.689079 8686.958241 7396.416350 2211.149501 37057.161236 34835.767034 33330.127044 29132.070536 25557.553334 23433.065069 17417.338207 12957.091841 11449.377020 7950.717394 12712.163945 37774.695957 33490.653022 33058.710263 28923.498800 24374.844418 24849.792181 18084.197114 12333.492192 10654.786786 7876.241353 7249.681910 36564.542479 34647.378194 32786.306653 27651.508927 23662.234410 24478.994052 18081.345457 13337.492673 10366.558526 9234.552251 11845.187421 38031.612473 32568.142070 32753.001887 28725.896306 24752.500101 22124.077034 18811.928817 11402.348767 9869.940121 12808.120420 12314.162088 34727.561630 34258.564440 30636.344653 30383.112800 24257.984636 20016.170220 18877.009060 13085.846553 11357.059299 9330.862376 8784.147554 33826.169392 33821.130958 30357.091927 28429.825137 24554.096816 20118.956853 19206.919478 14431.222257 10068.907915 8170.199002 1555.749407 32993.260847 30299.745433 29573.056497 25513.189039 26057.615615 20262.006327 18511.767830 13443.192474 9460.451351 11178.921295 13055.120659 32216.771951 33179.606518 29707.509784 26815.640292 25828.633707 20423.376907 16436.789127 13243.812685 10703.633266 8512.783969 13797.906408 31823.091310 31433.036454 31956.556154 27679.760397 23372.380008 22254.941490 15085.680483 14253.942378 11451.230210 13421.734795 3982.744974 31663.797590 31908.453811 27925.993567 26808.753734 22603.716338 24126.431338 15148.706900 15213.812490 11049.918093 8498.124457 14770.676293 29960.095856 30109.974617 27316.245577 27251.022530 21412.458137 23884.642303 16331.904611 14055.412906 12736.144462 9282.476502 3092.599859 30696.133479 28883.726854 29475.082184 28526.437243 21917.714708 22201.748382 18549.332998 10784.577826 13644.191470 7588.264319 6404.862833 28989.989688 29288.792297 28956.217978 26879.866433 23391.258675 19936.523894 20164.916344 8254.481087 14933.483426 6702.149296 9598.320558 29578.753488 27571.321191 26828.330219 25863.372827 23171.623886 18788.618678 20804.331006 7915.586727 16489.393389 10446.744183 8496.005685 28821.676984 26914.036177 27062.585341 23841.855005 23737.204267 17268.731829 20444.843346 9903.624888 16509.291982 12683.420154 7167.948718 28968.118685 29086.213611 27694.419115 23393.185002 24055.671805 17219.712431 19083.575658 11928.637366 12971.302449 11342.362232 5236.840768 30929.688085 29237.287057 27273.555349 23833.087518 22742.626271 17725.680466 17370.439083 13297.049008 8951.819159 12435.360736 4396.071452 27202.947399 27548.351022 26903.102319 22240.645603 22092.882422 17542.422257 15666.664771 14428.725996 6353.311885 13250.411592 6549.812719 27789.757127 25851.768151 26364.891018 23731.435636 21239.824888 18466.579030 14049.942486 15261.616519 4854.159516 13780.473073 9355.503219 29612.284894 25932.537851 26010.550402 23149.816481 20279.346815 18353.304808 13273.402842 15258.544762 3988.041984 13760.579290 9316.770332 28475.394198 28249.927977 25801.213398 22099.618268 20751.389935 18079.732946 13901.027600 14368.429109 5155.000080 11289.078760 10977.926914 28373.850398 26925.562960 24355.162199 23608.690354 19797.819969 18095.958945 13305.009920 13294.516458 6363.956294 7739.045125 12101.934118 26366.678369 25469.355039 23961.655396 22686.851704 19580.966686 17901.212285 13537.589183 12581.527489 7365.058250 4997.489486 13122.884425 26048.890814 24884.083852 23629.438732 22094.024091 19432.307909 17279.389795 13213.949774 11604.808471 7589.957479 3706.802146 13971.274807 27912.212697 24712.366889 23424.158789 21477.123902 19223.066591 16558.805949 13294.599628 11119.845448 7480.693729 3400.164233 14361.199121 25995.757561 25658.324660 23631.784212 20970.243163 18532.941567 15848.715707 13133.655414 10204.166493 7654.086320 3475.965483 14469.906625 25287.100511 24215.585866 22797.324411 20314.529501 17846.799848 15857.714015 12982.309173 9918.313297 7978.829637 3577.434530 14361.105021 24077.373945 23832.312679 22575.002979 21474.634486 17597.231068 15618.305553 12467.215435 9749.001664 8444.175030 3692.238427 13509.803723 24884.444606 23123.646092 22249.546915 19967.273585 17538.211773 15224.079134 12803.529378 9354.886884 8211.646112 3846.720327 11847.508478 24265.823941 24241.412884 20469.562013 20745.632454 17865.002503 14523.802763 12574.790314 9303.059384 8211.853598 4037.846375 9870.547136 25328.166044 22658.476223 22072.989255 19678.449695 17028.179048 14948.987574 12191.674448 9360.808023 7560.584726 4324.078572 7753.233332 23192.894057 24354.823083 22310.681965 20202.098221 17874.624583 14373.323281 12057.068355 9276.185673 7524.248012 4468.536944 6289.261537 25084.512853 22935.132661 20208.112182 20100.441291 18084.332711 13923.935309 12524.675302 8846.801398 7295.502726 4240.315541 5282.005896 23509.179612 22584.635626 22150.470640 19060.084298 16442.731964 14506.267963 11317.234828 8935.941635 7161.029955 4053.170872 4808.476363 24156.267859 23074.401202 22452.616622 19458.381279 18134.532162 13970.439702 12165.012342 8798.908193 6830.737642 4782.159291 4227.506016 25447.513272 22619.047565 20177.501405 19781.310372 17439.540824 14209.466243 11220.527463 9336.283655 6615.777085 5245.982664 3695.606669 23457.086450 21617.445522 21046.174475 17428.892302 17626.553239 14799.037992 12233.420306 8462.774411 7101.972154 4901.661292 4693.086462 23329.998179 22568.652581 20482.704360 19579.475079 16372.950379 14809.758982 12424.986893 9283.798251 5428.669755 5565.123698 3479.242986 25515.441929 22389.909390 22026.286068 16794.921866 16023.657079 12026.829535 11996.108387 9673.214515 5872.498815 5644.120997 3106.049601 24021.583092 23137.616695 21029.276541 19584.315538 14962.509112 14481.864679 10643.358230 8269.702043 6944.111374 3392.155616 4579.630935 23857.458542 21610.409132 21507.013130 18627.745624 18049.775511 14531.186093 12973.402080 6659.381408 6686.538931 4523.368647 3072.164519 23203.652558 23350.809821 18868.629176 18989.355188 14912.879363 15630.950205 12991.476085 8910.100592 7416.628780 4987.760100 2617.473739 23136.142457 23615.706091 22935.374474 18518.065551 19994.546022 11126.016189 10766.631920 10422.497133 7897.074134 4368.216975 2099.577624 24713.330664 21271.705447 20453.120868 21852.558128 15688.573532 15609.959447 14085.444716 12778.960391 5255.827411 6552.936235 1369.014753 26748.463568 20598.184132 22648.903326 17752.376019 17555.070753 11186.848966 15080.460254 11664.259130 9076.236672 6771.656644 1999.739141 23765.707070 22288.621283 21569.017655 19553.733937 16771.505931 17648.449698 12196.798388 8376.587312 3199.544001 5805.984414 1294.501820 24243.957513 20962.791156 19618.544564 15807.173164 21178.951798 14349.615687 12756.505706 9129.590353 7359.982812 5693.573583 80.600580 22018.283965 19742.921395 20074.801577 21082.724546 15179.738250 16643.750918 9032.421625 13757.883982 8395.441362 4892.544293 902.403415 22924.527511 19376.567844 17209.032699 18090.752939 14900.697162 12096.249746 11944.467897 6399.377490 8434.800373 5100.822797 6584.191578 19460.638802 21146.832752 20289.191604 18379.410499 14339.231351 15878.254387 10563.383840 4488.056893 9515.543515 3492.222348 1254.274389 24689.531930 22240.565468 18153.255970 15128.807623 12237.894761 13720.385204 14946.124415 13451.424635 8806.151189 3732.636476 2943.256245 6954.539038 11740.454381 7985.264594 7993.664832 4591.199017 7214.580097 5944.073815 3248.303049 3332.850456 865.591352 553.140199 1524.293140 -2150.053299 -4180.126152 8849.131710 3195.148426 7736.175392 6749.660673 6473.529313 5874.836108 6543.547233 3983.101880 3736.041654 1668.982565 -1545.095627 2913.919990 1400.451637 466.270574 6341.842233 9088.151662 7613.230972 8270.963456 5061.686181 3562.144382 6539.182629 6989.828407 3813.650497 907.070981 3311.755787 1839.739343 880.664495 754.491914 10222.443951 8337.495650 8539.711445 11604.483607 6077.084015 10920.523629 5879.342266 465.298807 2905.523989 4686.852734 1567.912079 987.753627 1145.745483 1732.491222 12342.811393 12153.977817 11761.014664 7892.881142 14466.165872 8166.553838 6818.828804 4417.519064 3875.713465 1859.734594 4736.939813 2495.810094 1941.521238 1414.526187 13131.994832 16174.583955 9707.096637 12723.971495 10777.033404 8482.069334 8089.456820 9387.681199 5692.171180 4208.056339 5821.946754 3470.824925 2593.464652 901.329637 18699.521236 10352.437022 13588.286097 10089.886638 4500.315943 7550.072512 12231.615150 8556.632998 4685.987157 1908.647771 4228.509279 3185.656715 1577.033869 683.839416 15795.346332 17433.811398 12897.672476 13539.967506 10534.314030 13854.094218 11073.531336 7967.377368 4373.060999 3703.018791 5543.226918 2542.690712 3783.642276 2099.772289 17852.085119 19032.665158 5714.996449 9318.156201 15705.328178 9478.327056 10286.797255 6203.705917 7594.045639 8494.862085 5952.527079 5574.702875 3908.044352 1609.693582 13124.029452 12307.052767 13082.884287 12473.977292 14117.321142 6523.881453 15089.359483 11510.386127 8476.958756 8238.364099 9193.882695 3295.547818 4757.337035 5424.065173 9776.482268 17619.520879 15691.541231 6291.264436 8303.545668 8335.020822 11762.401345 12279.023674 8658.338117 6997.958985 6865.107630 3058.364226 4938.573889 11663.308637 17557.161329 4042.800243 9370.534332 19191.485434 6631.025987 7278.670608 8603.236752 10173.784603 11329.664237 5766.346797 12472.062157 9110.761509 5051.428085 10011.715027 10920.253639 5812.225251 902.644306 6803.197316 3442.627355 6346.279264 11235.245529 13438.465472 13235.501885 12839.049218 7582.572055 5719.598019 10623.579469 6688.514453 2084.118767 3714.089702 1018.569588 5664.726604 6165.757219 -690.809535 3489.926923 3596.202359 4870.102150 7785.455890 5388.173562 1423.723375 5065.083939 7638.066164 1237.074526 3081.479733 77.639101 2663.594960 2475.482372 1328.516895 5876.568937 458.893253 1166.466541 5102.792904 5321.358457 2360.571633 4314.111744 5272.744516
</DataArray>
<DataArray type="Float64" Name="Velocity" NumberOfComponents="3" format="ascii">