<VTKFile type="PolyData">
<PolyData>
<Piece NumberOfPoints="1945" NumberOfVerts="1945" NumberOfLines="0" NumberOfStrips="0" NumberOfPolys="0">
<PointData>
<DataArray type="Float64" Name="Pressure" format="ascii">
 16899.710959 16778.324799 17719.518146 17005.801375 18544.720838 17997.890130 17702.338868 18169.849638 18072.365699 18473.377008 19946.256011 20001.985044 18313.489637 19146.612223 17889.218724 18526.683797 20031.449454 19817.552840 20626.384522 20657.125626 20785.509960 22102.221070 19540.212155 20514.520894 20332.238645 21287.327614 20377.198760 20421.633423 22748.320520 22230.756452 20013.347117 19196.499348 19986.237221 20233.103356 19678.893587 19977.325573 21133.482802 20106.025206 20539.906856 19873.715563 22245.446877 21574.165950 21760.122770 20327.891848 22625.726867 19898.628549 25749.432269 21945.524139 23816.376428 21354.743206 21909.896276 19973.657036 20801.485018 19957.521226 20906.003252 20670.768023 20688.022221 20836.185521 19570.890368 19852.758472 21267.648021 20505.041699 23628.189656 22364.493856 22406.628696 22083.437497 23211.885579 21787.441025 26041.060833 24265.620975 24030.468068 24103.174540 23032.702615 23348.958547 25258.049210 25012.180709 23063.304873 23751.085292 23103.055165 24042.083163 24557.588067 24922.146676 28016.271716 27318.517873 28636.027856 28715.335073 28205.935103 29009.005361 25140.181524 25348.194626 27972.941130 29793.341023 28712.995981 27903.802187 32601.801865 30461.010461 28513.780655 28632.079514 27154.800679 28781.017768 29914.449843 29767.555761 27744.641543 28641.558891 29077.394972 27968.039774 31116.110323 27496.432121 28984.156400 28684.465835 27273.526272 27312.844893 32484.777284 31699.426855 30359.130226 28214.594304 30567.603040 31794.555980 28851.118511 28890.757433 31420.641982 27844.111454 32891.999084 30145.677441 29594.725155 26759.557793 32257.909283 28615.989802 29066.181046 27917.046145 31308.319638 30827.487762 26144.846319 26128.009405 30065.753075 31065.135883 23069.159746 24213.506049 27709.042104 28160.520509 21597.334122 24307.201744 21881.643686 20563.235426 32544.310066 31439.368429 23343.529338 23111.928921 26963.132257 25902.623274 27264.279777 26332.305915 25263.257862 24001.317322 27564.636978 25386.807854 23499.973585 22429.547678 27767.304625 26329.471179 23003.705592 22308.411156 23311.033960 21926.995128 24976.857794 24490.751190 22074.160358 22614.453123 24556.194165 22448.973815 21412.761405 20627.300199 24267.147912 22049.746026 22350.114031 18885.895757 22537.877746 21847.532774 24435.300091 21317.378590 24925.459747 19916.941802 25117.384899 21258.672242 22476.499713 19114.928349 22190.167645 17701.696564 24675.380562 20235.027580 22230.490810 18742.088283 23682.259998 19917.912491 23482.824466 19331.091920 21322.097594 16979.519062 22191.274172 19017.042727 22164.103225 20910.608295 24705.106626 22437.263306 23918.039194 21039.303381 21651.689308 18989.557591 21781.922263 20569.029619 16565.059244 15963.051366 14544.292048 12742.065702 11040.944750 9616.977358 8290.986311 7132.976889 4916.881456 2019.699444 26.098167 -463.234158 -514.283219 -660.929228 -2531.347153 -6044.857959 -6776.944934 -6718.387787 -6889.884349 -6961.914016 -6948.301849 -6863.597518 -6719.510486 -6526.702256 -6295.493210 -6035.606743 -5755.752842 -5463.346212 -5164.413949 -4863.659940 -4564.629998 -4269.924874 -3981.420565 -3700.469020 -3428.064336 -3164.968847 -2911.800049 -2669.083384 -2437.277981 -2216.783000 -2007.931801 -1810.980056 -1626.092572 -1453.332188 -1292.652825 -1143.897918 -1006.805870 -881.031590 -766.242389 -662.634471 -574.280574 16056.432841 15858.200519 14104.888153 12737.423076 10731.360042 9271.417097 7584.630696 7418.461169 4990.169485 1624.348705 -612.641777 -584.401990 -431.266977 -259.980731 -1701.210374 -5643.244327 -6891.960920 -6633.851050 -6848.204272 -6939.789336 -6932.684889 -6851.199060 -6709.484662 -6518.827463 -6289.627470 -6031.553027 -5753.256167 -5462.125388 -5164.194144 -4864.195718 -4565.717512 -4271.405164 -3983.176711 -3702.419729 -3430.156007 -3167.167568 -2914.084469 -2671.438943 -2439.692658 -2219.244533 -2010.426172 -1813.490980 -1628.601704 -1455.819767 -1295.098435 -1146.280575 -1009.099575 -883.173435 -767.932310 -662.122007 -560.653621 16834.125334 17835.580819 14637.249543 14908.587610 15154.615078 11778.955114 11441.443302 8193.425321 9684.567139 12887.437654 5946.795823 8818.359136 23778.422443 9508.768207 1324.386304 171.846038 -111.966108 -137.645700 -134.789732 -182.374325 -296.485680 -466.977028 -674.161292 -896.661755 -1115.041453 -1313.337959 -1479.552912 -1605.625938 -1687.155452 -1722.990857 -1714.753193 -1666.311925 -1583.236143 -1472.238159 -1340.630455 -1195.819542 -1044.860707 -894.094819 -748.882591 -613.443512 -490.797513 -382.798683 -290.243415 -213.031081 -150.354084 -100.895696 -63.017733 -34.924840 -14.795864 -0.861339 8.617125 19980.336838 19849.052951 18271.631588 17415.254178 16409.538229 14633.934317 13949.040231 13325.645779 13639.354607 13759.572830 12443.599031 11343.417875 9029.804276 4385.226095 1569.899769 348.894819 -37.357186 -118.586938 -139.010401 -193.719905 -307.673834 -475.079191 -678.322454 -896.995535 -1112.093384 -1307.822673 -1472.224267 -1597.211092 -1678.318954 -1714.312763 -1706.714445 -1659.284872 -1577.480041 -1467.900119 -1337.752102 -1194.349155 -1044.669947 -894.998629 -750.660489 -615.860403 -493.622316 -385.819465 -293.278235 -215.934323 -153.018569 -103.251261 -65.027290 -36.579603 -16.115497 -1.940019 7.333881 -512.192995 -483.769168 -490.583977 -463.808003 -435.357438 -420.662840 -369.021799 -367.330768 -315.429944 -315.705013 -269.208288 -269.758689 -229.023966 -229.567454 -194.155078 -194.648650 -164.013702 -164.453539 -138.065567 -138.454475 -115.818662 -116.160602 -96.821951 -97.121057 -80.664962 -80.925316 -66.976881 -67.202425 -55.425065 -55.619548 -45.713097 -45.880035 -37.578500 -37.721162 -30.790255 -30.911643 -25.146200 -25.249047 -20.470400 -20.557175 -16.610565 -16.683481 -13.435548 -13.496571 -10.832973 -10.883841 -8.707013 -8.749251 -6.976342 -7.011278 -5.572250 -5.601037 -4.436952 -4.460584 -3.522061 -3.541390 -2.787236 -2.802987 -2.198980 -2.211769 -1.729600 -1.739947 -1.356291 -1.364632 -1.060347 -1.067049 -0.826489 -0.831854 -0.642282 -0.646561 -0.497643 -0.501046 -0.384432 -0.387128 -0.296098 -0.298227 -0.227389 -0.229065 -0.174112 -0.175426 -0.132927 -0.133955 -0.101189 -0.101990 -0.076805 -0.077427 -0.058128 -0.058610 -0.043866 -0.044238 -0.033009 -0.033295 -0.024767 -0.024987 -0.018530 -0.018698 -0.013825 -0.013953 -0.010285 -0.010382 -0.007630 -0.007703 -0.005644 -0.005700 -0.004164 -0.004205 -0.003063 -0.003094 -0.002247 -0.002270 -0.001644 -0.001661 -0.001199 -0.001212 -0.000873 -0.000883 -0.000634 -0.000641 -0.000459 -0.000464 -0.000332 -0.000336 -0.000240 -0.000242 -0.000173 -0.000175 -0.000124 -0.000126 -0.000089 -0.000090 -0.000063 -0.000063 -0.000042 -0.000042 -0.000023 -0.000023 -0.000003 -0.000002 0.000024 0.000025 0.000063 0.000064 0.000124 0.000127 0.000223 0.000228 0.000385 0.000393 0.000648 0.000662 0.001076 0.001098 0.001770 0.001805 0.002894 0.002951 0.004710 0.004801 0.007634 0.007781 0.012325 0.012557 0.019809 0.020175 0.031670 0.032240 0.050314 0.051190 0.079329 0.080659 0.123974 0.125962 0.191791 0.194710 0.293338 0.297542 0.443018 0.448946 0.659891 0.668060 0.968327 0.979296 1.398214 1.412523 1.984342 2.002395 2.764437 2.786328 3.775174 3.800440 5.045418 5.072707 6.585896 6.612561 8.374575 8.396235 10.337275 10.347490 12.323131 12.314127 14.072902 14.043738 15.166840 15.176982 14.779392 15.404316 13.265999 14.885147 12.345611 14.288241 16235.671041 18226.930568 14548.032967 17489.709096 17767.800573 12683.751427 16713.596290 17814.316942 14092.232916 13147.126858 15733.941008 17948.538443 16064.680982 12935.632419 18113.050115 13238.581537 8597.828863 13552.467632 14407.752189 11332.012935 13797.450326 13232.676418 19670.136075 17652.475427 18791.360761 18393.061735 15161.929842 17493.078586 11641.635664 15904.195851 13683.354026 4714.254180 18312.858493 20990.197827 20099.402491 18693.444761 11094.557974 16838.773464 20811.189790 13663.170333 8224.169787 15398.026407 8878.548271 16717.147850 13727.346977 7079.020061 18912.794024 21330.295709 18795.692111 16611.152877 16026.382539 16976.846486 7155.833612 13454.821227 13962.747238 15784.748692 20087.658071 20094.833629 20412.160828 20061.181804 16845.626838 18519.712081 17109.622421 14321.913607 12680.488786 19497.322216 18786.403370 17329.821602 21196.530174 19391.361320 19058.849698 16321.209510 17286.152557 16555.844983 14838.725900 14536.208480 6489.125236 18981.559256 19491.786882 19372.024470 17215.145374 20147.368473 16141.565197 14007.947197 16911.959733 17765.144602 10072.434263 10800.055399 19890.889238 20254.160757 16795.836735 19331.835385 19194.355185 15419.874825 13405.079627 18168.892774 15862.186430 10821.354792 14680.265323 21737.233792 16266.670034 14273.470656 17208.680712 10456.987310 18570.984912 13011.878610 14638.673546 17146.983007 3802.986915 11589.575738 19817.224907 16219.470199 18909.845238 5538.610997 17772.616013 10954.173970 16711.767767 8127.638422 9109.977209 7982.610352 4111.915267 18565.528006 18546.504018 10037.101226 18966.372568 7218.144357 13670.924911 10778.286722 12250.289688 14016.842515 13868.835012 12452.459127 20071.873659 17110.147236 18534.139446 16454.547229 13330.815175 15219.720223 13864.191786 9129.293452 18345.945178 19195.469488 10111.972640 19391.398952 17485.928020 18649.810299 18501.457322 17758.153512 15515.636065 14498.545578 15365.381042 15449.027305 10263.632504 10697.117951 20614.387369 19052.283683 20587.826021 18080.648312 13541.941545 20316.431531 12040.249379 12050.592014 5907.931099 9510.880805 7168.630227 22234.638717 20540.687197 20166.184420 17598.009811 14564.554766 11867.970103 12562.285987 7810.078279 4367.657421 3202.728130 4375.300574 20382.928141 21700.207471 18672.123933 21212.509029 17692.374763 17152.586782 14394.295950 13412.437233 8043.265135 1333.633628 3763.812461 21115.254670 18806.027003 19668.313745 16800.447940 13840.940899 9235.302994 4838.690088 5939.049556 3908.728443 1235.432442 2916.305469 21009.931505 20756.293236 20709.012460 19527.823841 13983.507931 9573.537312 12628.249679 9731.093862 7809.516114 5781.598359 3101.411936 23911.492186 22162.824285 22163.797975 18261.662905 7405.425543 9447.518468 9369.557837 4667.183258 789.094623 3025.059321 3717.443092 22918.604853 21736.475524 22938.561244 19992.268649 12798.463493 6020.344498 6212.421551 5667.281682 4929.565696 6977.110473 2473.510643 22286.063049 21644.691161 18840.528006 17290.163385 16810.965938 4212.591967 8472.880021 5568.882844 4398.498306 2895.894051 4180.299863 24102.936739 22985.326541 21130.880272 12815.340137 13741.434106 13217.030623 6485.525757 4203.820762 6506.107989 5935.867588 5213.227669 22554.508590 21633.996664 17310.519407 15218.031007 7662.548191 11341.755379 13895.591596 11936.018198 10265.071773 6772.959980 4989.868414 21017.305681 20610.634262 17837.119548 14566.710841 14779.745838 17609.183108 9502.812113 5228.480876 12411.531210 5067.393137 3843.446500 25178.339652 22087.926804 18166.419629 22144.414583 19408.296622 14614.639560 8053.361232 8359.085611 10127.134985 10461.992147 4799.412168 23162.641455 20939.933996 21409.831021 17304.760853 19742.967425 7219.868946 14010.327935 6625.846658 6363.430639 153.293133 4000.681684 23478.110316 17413.497898 13905.957544 16722.194377 16794.949620 16309.649291 14300.056280 15655.208014 6534.584643 5891.219389 10781.879590 23584.530908 24718.037102 20892.135515 19621.495090 18457.199239 13411.438599 6938.780364 10182.195292 7312.786227 9286.938089 6114.896152 25702.845392 22207.264302 18175.584776 12809.115541 17167.504669 9769.707096 13875.089915 7586.535271 10027.097854 10293.360683 6096.664084 24591.662211 21657.261872 26249.814349 18218.869865 19455.643006 7595.064289 10089.209146 13498.813413 8684.493877 7765.189113 4709.337157 27496.551614 27645.339680 18608.182427 19171.875233 21116.579206 16839.604446 15331.154616 10080.607614 13574.289312 12623.965634 4038.152805 26372.201953 10893.394325 23128.091763 18130.038492 21075.988807 16698.645102 10150.253836 14155.533629 7577.772737 8312.302222 6366.426131 26537.204492 27517.946457 22799.852011 22132.054802 18345.650032 15319.077535 14807.826035 13160.160738 8882.756373 7498.814289 8193.874462 25842.662328 23967.158547 21559.650263 20971.460401 19513.807168 17813.722930 16415.098068 8546.817005 6333.642552 7543.085292 4789.677700 29007.843443 25544.563901 22506.625932 21586.799060 21799.245718 19584.044968 14003.766415 17083.992164 6661.247862 6627.922977 6652.917372 25140.376775 27057.372162 19080.436975 20916.523536 24644.998796 17298.926988 17692.954106 13873.312112 13657.171395 8318.370131 3937.220686 22494.145852 24692.524000 22682.383335 24717.778633 22699.906265 12777.091955 16738.390008 15226.582559 18573.702485 5692.463195 9300.122704 29225.406932 27232.507768 25020.339996 19657.498484 21705.901367 13396.844271 11070.124605 6714.703161 10069.241266 6804.729618 4902.395685 27363.496054 24362.054654 26386.533017 18770.779265 10454.590043 14327.863252 10831.845266 8776.373571 7191.858111 11550.325873 6753.711934 29829.994280 27516.796930 28139.757352 22559.818495 21601.852457 14171.340432 12009.296153 9414.458550 13146.688913 5524.309876 5074.790816 25931.607902 25765.305729 24398.249190 17977.038372 16845.521336 15106.532041 18463.171939 10969.991916 7523.628827 5800.642481 6541.042569 28563.395081 28476.692254 23140.857224 20256.795640 18846.539202 14545.372122 15756.648254 12153.508678 9395.957339 7076.378150 9439.590975 27873.485543 24337.009951 24801.685048 25280.147443 16538.399054 16209.815447 12606.830992 11662.375820 9779.238526 8612.130894 6147.108789 26471.970683 26927.173472 24508.772430 14333.682063 17707.799366 16236.341704 12947.631172 18402.231081 7302.092206 11347.511143 2596.544727 26097.418768 26763.645203 27891.964165 8936.727966 10475.230302 11973.244355 12808.025526 10815.978450 7273.171521 11501.049681 -6364.268420 25935.739447 22322.882859 20490.822244 23612.494522 13268.092266 18136.814097 16356.279428 6868.312638 9293.724246 14614.972950 6781.893341 28888.915384 26564.290668 22092.700949 22401.241336 17390.865381 15737.995860 7623.265107 19319.471375 12550.779439 4084.515746 3179.789260 27190.748737 27418.875841 25186.637339 20790.472011 15216.255274 21141.596996 21454.028869 8736.513917 13962.657795 4001.990081 6797.840923 25839.146844 25116.221410 26015.650042 20683.819522 21319.317781 18352.269925 19783.203327 13078.780229 14963.028275 7183.871022 3273.023980 27230.411451 22763.578305 25077.363709 23638.767073 18162.984397 20028.313884 15641.565298 17876.001967 13576.435073 10125.095598 3747.484894 28745.320748 25443.600105 21916.917894 21334.550128 22581.518114 18423.531916 19201.217197 15413.291393 9536.941489 5314.904905 1487.499498 26556.825279 28136.747802 24880.236853 23478.074116 22155.752798 18060.873726 15377.722258 13838.958276 14814.785858 10272.659925 3626.036243 26309.650065 26488.416912 24759.608857 25856.305979 22475.525477 20348.022410 14461.193825 14199.547565 8810.944212 7343.547412 1821.088079 28999.145673 26004.844636 25091.846135 23471.572456 17293.304851 12437.108433 10669.775611 14083.867329 5508.481265 5453.484552 1702.270443 26117.569603 27667.903043 24631.324791 23554.841707 18670.969175 17881.468993 14396.673836 10377.472860 7884.502765 6055.449415 3617.619907 28852.271811 26935.057237 24447.177501 20307.124901 18113.407496 14822.291004 17282.475239 10980.459799 8245.171657 5387.835597 1958.025246 26386.597073 26618.123014 22737.895485 17193.207852 21932.272089 17388.019516 16906.188531 14385.579997 13551.840554 7516.428679 3119.644978 30180.154120 24258.689514 23682.521325 22619.492566 18841.728172 19398.792413 16697.465900 20285.288619 9869.405460 4862.494312 3324.024465 26279.282065 24658.555782 24670.157436 22982.946868 21558.465695 21510.337166 17229.537115 15090.977411 6810.719155 6267.055197 9260.104580 25844.578586 22256.577470 24138.818593 23244.020301 19147.325114 20519.390720 9812.113152 9252.555647 5143.823407 5596.350438 1711.675031 29707.476896 26678.063793 22920.941497 21528.964269 21245.969442 19536.536939 10639.139671 10464.682529 10011.081155 6648.146643 3392.335431 26288.019076 26188.410014 24155.339808 23271.896093 21131.465514 17245.525803 19646.583063 7056.335356 6968.446713 4587.352516 8149.102853 27519.979563 24294.212965 24219.537531 22726.502668 22401.981118 19645.626578 14042.466178 13978.470348 6432.105209 2633.699098 6473.149476 27661.751746 24708.999916 25809.675716 23286.627725 17003.456892 22391.881516 15288.008750 11289.469802 10238.349386 7232.131378 15004.114174 27198.402132 27841.645737 24283.507873 21795.834872 18110.549480 15997.278654 13680.718097 11012.743767 7364.303173 4895.154836 1859.396666 26601.306216 26703.367102 26247.624023 23775.497539 12193.988915 17201.031065 14890.473734 8001.133235 5179.664233 7231.952198 1897.965172 26848.558500 24397.323347 24301.741890 22474.518145 13906.465066 10992.058250 7431.106574 11016.354608 8594.435773 4882.948347 1416.030096 24762.672888 26139.839513 22245.955069 21053.267664 17809.318457 10722.142748 15151.272293 9828.603134 10838.972053 8947.416206 145.431363 25199.857382 24344.507715 25310.353189 21794.786330 19417.108641 11820.357289 12983.479718 9851.193384 5914.897698 7165.683891 13826.300553 26612.564533 26584.114408 23990.736790 23175.185132 17427.797979 17550.679946 9288.555728 13313.018311 9068.089151 9683.149574 3057.674598 26720.926868 18178.326338 21713.762287 24001.234042 20134.681306 14748.561002 14311.197104 9318.454372 9556.432953 10319.454059 3379.886128 23039.354852 27616.342195 21554.310313 20547.217082 14966.739857 15623.245576 16096.635651 8463.738078 10741.018346 8986.910095 -15669.040997 23928.037112 23427.286585 22022.644039 21317.593772 21424.076271 17987.602824 13514.088438 11285.056584 6530.036288 6057.062540 -1119.801908 25456.530780 22282.425849 25063.098947 18235.456194 20207.072838 17453.971903 12504.699172 10932.994440 7654.718143 5854.282241 -544.415916 22073.114734 23473.361674 21288.087971 22598.968714 17823.285236 12172.453004 16781.651062 7079.394880 9707.574500 11925.007373 5674.783526 23959.879660 21963.086469 21679.467561 21995.372671 15258.353966 14346.926669 11865.474557 10247.197885 10580.536371 6383.329509 7003.437914 22080.437306 21917.311819 21935.082705 23130.386657 16492.909912 13986.807891 12372.983427 12259.485281 9469.483490 5830.850177 13713.534875 24127.101609 21072.358541 22351.141481 22711.500806 19745.523099 16029.053448 16753.306261 12622.862688 10461.258301 5407.538656 7355.853966 22593.262849 22613.243460 22288.896168 20721.179696 16496.343603 14418.292341 14927.107695 9554.438434 9449.246080 6280.587219 6328.462922 23676.169072 21959.395314 22275.450762 19028.114292 17636.171942 14373.129245 12275.513049 13232.621524 10906.410780 7115.377303 6572.974791 21816.918879 22508.582834 21891.102317 19715.210029 20354.142377 17372.875119 13621.515970 12003.139161 11471.186684 7012.718024 16540.139690 22968.225962 21371.554574 21345.112207 21474.261890 20257.625137 17427.658137 12887.187848 11217.865168 9895.594375 9518.457019 3718.004900 22393.192336 20248.428678 20673.342674 18637.902098 16784.290012 16989.576515 10437.876770 11403.206944 8843.525909 6478.952863 4884.901454 19617.490671 18836.865733 20823.569032 19104.871738 18810.318861 13324.662604 12391.021970 10989.786216 9674.993046 5912.708364 8394.968869 21042.386291 19383.170332 16509.397234 17797.680584 16426.571725 15393.014919 11206.296225 10434.406933 6257.608577 3315.549554 10255.152454 17838.909495 13390.801948 18801.632889 19401.929084 14517.449129 13663.613789 13772.523771 7454.329585 7509.810740 15265.789216 14965.936236 19851.663094 17381.174629 16982.888094 15160.701830 12974.558134 15707.855935 8045.492450 8243.982127 8857.089949 1946.464201 -3558.983189 19625.288183 17733.714810 17399.137912 13010.803679 16077.556444 14468.906186 11451.674341 13650.340018 10591.594818 6839.809304 2086.319938 17309.444638 20690.364818 16711.845211 19231.184206 11298.058167 12931.992024 13586.376216 9179.872226 7762.395040 2570.702000 6795.909147 19013.433562 20458.220495 17872.592077 15998.830216 16308.995246 14021.340864 12605.486872 9595.676480 11344.687594 9532.845715 -14834.510264 17606.257880 17316.986966 12986.249643 15258.752791 11791.592457 13302.273133 11965.121677 13199.592629 13539.665008 2746.224596 8370.217123 16660.799928 17680.160096 16658.734969 14782.501443 14752.525973 12074.692314 12772.722159 13290.434029 11952.677165 2513.027372 8697.878837 19458.099904 18052.099246 15580.343362 16421.630356 14965.472580 13698.579501 13253.456441 12974.471548 11541.039600 11449.231317 12445.395100 19271.881889 16354.203762 15054.596128 12352.022792 15492.639141 14244.650784 14073.734460 13909.595902 12619.492008 6347.942385 14613.304480 17454.835053 17945.772965 18516.251020 16047.565423 13919.197184 13622.436444 13637.557695 11765.784256 13050.020767 13454.492954 13034.232022 16807.164497 18421.537788 18272.244889 12713.592636 14127.367148 13193.270107 13473.256336 11308.194649 13648.622121 12591.438007 3659.545063 18752.938888 21079.630972 16888.306005 14253.973407 16387.651246 12594.063296 11339.690460 14327.910809 12406.925436 7825.448213 13685.589246 19108.821118 14511.698470 13382.541946 15609.039938 17682.907147 11398.510070 14306.846901 8877.869054 12728.379543 12548.944203 10660.276025 20337.002304 19258.414925 17902.780620 17407.185412 16585.338030 20016.489466 17749.764886 8151.409908 13219.776511 13179.700051 15109.725419 16189.896511 16357.050608 14497.392623 15167.125051 14680.936656 12563.790486 15471.225578 15763.545967 13606.407897 8352.738291 12451.975128 13429.960819 17747.131404 17321.093210 14089.857241 10002.685783 15428.639948 12376.526094 15634.337452 16719.490452 11716.484927 9313.302448 9470.487791 4926.594597 -6455.544519 15910.338078 10967.190470 17169.720103 16556.475240 7382.862291 17832.470744 10210.648918 7542.578048 12886.616760 6299.959377 6979.869963 7027.294912 2145.672035 10106.029090 8005.387866 10410.048237 11789.207833 6537.282446 7235.983808 6560.141531 10798.617038 8594.887628 13135.843761 5587.461567 4520.874392 7037.601544 4795.618113 4744.243587 14361.535967 8681.416581 10137.073105 13187.106661 9574.492919 9713.745032 12829.023374 11671.925221 4513.524687 10207.624267 9754.841776 6337.747467 7771.761798 1221.302591 13191.324887 17918.453013 9319.037029 8986.705902 14658.101185 10888.664883 10910.786390 9971.052690 8318.822303 4720.366103 7706.936532 7192.561641 3089.495701 1588.768009 10586.891120 15223.821834 10903.820694 17929.461078 13460.267580 13537.189174 15758.439601 8461.502198 8362.482101 8107.038926 6116.068787 5676.903255 7947.106985 4093.235019 19746.206624 3724.180274 10181.517651 10263.888002 4669.212306 11781.723407 12653.144306 13068.101739 8559.209640 7338.327597 5527.766824 4385.563186 3836.975680 1127.049787 9011.832919 7885.216566 9711.089348 14118.658713 7830.867989 11742.795294 5660.319407 5043.434974 3270.478183 4676.065103 8447.496646 5312.387077 5043.011194 2332.330920 11822.009165 12345.771233 8278.234733 3060.396944 9429.120665 4402.495798 6305.423543 6966.911462 4118.932042 7992.328368 5565.187946 6492.146278 2001.531111 5702.250650 5367.569770 6147.234833 9517.677875 6055.288322 8583.861768 2891.517464 7759.842288 6304.794835 11785.202559 4023.442143 3117.103390 1755.221241 3592.832928 5668.323906 6532.340290 8758.355223 15849.572387 12210.519700 6347.319829 4648.960249 4973.560916 9578.741708 7702.671091 7905.148204 9004.375103 5174.185955 4314.902365 4698.249435 9692.739402 5483.829541 6882.291325 17379.751800 5316.447858 10545.440967 1705.945444 11408.759890 4920.281554 6668.921398 7019.605769 13069.909481 2003.788412 3695.747251 3976.619795 3483.457490 1752.528302 10226.883827 5068.594335 1492.654096 6945.630973 15534.213852 17816.422265 6471.580845 6509.702430 3852.546482 2356.237646 2881.807510 944.313769 5952.721171 6561.193329 3723.258945 6946.932728 4287.528826 4870.999978 10053.485585 3028.360658 11669.763268 4385.295185 2194.201396 3731.133268 2677.605820 981.618975 4208.726240 2354.997967 1658.992400 2889.779203 4989.730851 10443.348412 2261.587143 914.590449 409.926273 2561.422032 2565.417247 3942.237275 3833.171811
</DataArray>
<DataArray type="Float64" Name="Velocity" NumberOfComponents="3" format="ascii">