<VTKFile type="PolyData">
<PolyData>
<Piece NumberOfPoints="1945" NumberOfVerts="1945" NumberOfLines="0" NumberOfStrips="0" NumberOfPolys="0">
<PointData>
<DataArray type="Float64" Name="Pressure" format="ascii">
 17948.280324 17651.994148 17868.666445 17656.806497 17525.082063 17532.709189 17501.872822 17447.319586 17406.412861 17231.393401 18707.127003 18614.459658 17420.551234 17496.135668 17510.636643 17398.399937 17530.624771 17300.966970 18270.350810 17656.669401 19462.875390 18086.038908 19393.547289 17535.776724 19196.967368 18160.012817 18093.999949 17917.965008 19127.839156 18417.066543 19711.809164 19491.605783 19483.936770 18664.402035 19664.677956 18691.007480 20556.572878 19827.787377 19764.597502 19105.403162 22421.874666 21559.223897 21252.484197 20479.848239 23130.597853 23952.910433 21305.287541 22835.639567 21430.159978 22420.136761 20518.365403 21952.273599 21091.688711 22185.003223 24290.771320 24416.914470 24692.244098 24782.537257 24728.093520 24324.449583 26936.899474 25932.444116 25687.987684 25496.813986 24957.328522 24198.223121 28592.585069 28358.869600 26255.860340 26575.714830 25514.234517 25129.453313 27404.971176 26250.805725 27685.510282 26945.286907 24807.347338 25591.187573 24865.161990 24601.370734 28182.532707 26753.901587 29816.515457 29134.118054 26015.718807 26141.709546 27663.970953 27695.220407 28618.272890 27692.260400 27078.861643 26289.372508 26765.333729 27860.355598 25521.473473 26170.546399 28757.421521 27835.037447 30570.146438 28455.422550 29798.800527 27878.216297 30087.873259 28689.290188 29390.223837 27832.719520 29101.303986 27842.488488 27593.548994 27728.923785 27756.157990 26953.392182 26874.724384 25086.749360 26842.118202 24244.184830 26435.677019 23846.849389 23044.849274 22062.567364 23958.230758 22666.114753 22810.368785 21214.053688 26616.626323 25831.452198 21851.068573 20767.056422 28605.853238 26062.798008 26294.909890 23267.455217 27457.357069 25154.864849 24453.524731 22765.388166 25068.316065 24724.348816 21315.367264 22416.906923 21437.169834 21252.907679 28475.028421 25785.859674 23543.484162 21758.857642 23233.614627 22827.826848 24846.560684 23854.070971 22985.352330 22678.431408 22819.558082 21938.118279 22532.864437 21387.110862 21135.580327 19732.205116 21818.779023 21588.986259 19970.518767 19647.469427 22447.039540 22637.786575 20871.495061 21967.371222 19769.153815 20527.556637 19529.545758 20923.955958 17600.834299 19164.551459 19197.124883 20297.215670 18931.811085 19770.587073 20009.620377 20105.986381 19161.947793 18803.984137 17736.233089 17346.463746 16815.836810 16750.801219 15823.232635 15341.767095 15848.214439 14482.223941 16022.132558 13857.400641 16740.153628 14359.823809 16064.461033 14420.314195 14120.404843 13198.979684 13912.191511 12567.747653 13298.200090 12084.279426 11207.162142 10118.635979 12481.303329 11101.054510 13913.365523 11790.145928 14393.551973 12394.387042 15099.651961 13607.174441 16981.272940 16267.369044 14826.621948 12791.614208 11541.376439 10330.036327 8710.547573 6688.368677 4152.255588 1703.943090 485.489969 121.237710 -47.639147 -620.568677 -2976.531903 -5917.423133 -6556.912523 -6561.524596 -6672.630775 -6746.664089 -6752.996589 -6694.640566 -6578.896218 -6414.357843 -6210.001207 -5974.535829 -5715.977615 -5441.405079 -5156.850011 -4867.288985 -4576.710060 -4288.229967 -4004.237624 -3726.542837 -3456.514152 -3195.195785 -2943.399008 -2701.767741 -2470.821073 -2250.977113 -2042.563203 -1845.817371 -1660.885272 -1487.815962 -1326.558940 -1176.964190 -1038.787507 -911.710946 -795.438563 -690.222014 -600.283151 16938.106438 15700.684994 14474.476112 12493.314511 11701.552816 10352.600974 8910.478201 6855.481274 4567.961618 2139.255689 960.814935 371.106896 69.936559 -381.433816 -3036.951627 -6187.319678 -6689.174476 -6499.792398 -6652.328692 -6731.540657 -6739.772419 -6683.011250 -6568.981988 -6406.244967 -6203.664654 -5969.855966 -5712.774296 -5439.467633 -5155.960616 -4867.240086 -4577.316206 -4289.334362 -4005.714077 -3728.294174 -3458.468328 -3197.300843 -2945.617824 -2704.073211 -2473.192125 -2253.395709 -2045.012327 -1848.279891 -1663.343499 -1490.251705 -1328.953772 -1179.299137 -1041.038210 -913.814826 -797.089756 -689.630268 -586.280329 9195.775310 7734.558047 6952.169259 5793.188338 5050.765728 3926.585647 4160.675952 4066.098430 3650.042330 1712.243901 269.781591 -642.264336 -1260.281401 2808.507360 4606.808957 2733.809325 1507.173874 689.325590 193.815720 -113.379278 -333.866050 -525.442644 -712.550144 -899.485630 -1080.573291 -1246.626681 -1388.557781 -1499.143787 -1573.715920 -1610.256246 -1609.183409 -1572.981183 -1505.753353 -1412.752692 -1299.915173 -1173.423070 -1039.316610 -903.170286 -769.845486 -643.325503 -526.632674 -421.821254 -330.034322 -251.609452 -186.216142 -133.008340 -90.777279 -58.092402 -33.418481 -15.173561 -1.607159 11604.035617 9898.171450 8521.244758 7032.992762 5576.394278 4299.680993 3883.517828 3239.938339 2685.857412 1991.813295 1552.859820 1528.579968 2151.470563 3302.863503 3567.750560 2637.627754 1547.877712 746.484209 234.111215 -92.043153 -325.261315 -523.169521 -712.196931 -898.612847 -1078.139669 -1242.433942 -1382.855592 -1492.383942 -1566.410177 -1602.897450 -1602.202894 -1566.726770 -1500.479622 -1408.619409 -1296.991772 -1171.697928 -1038.710033 -903.550038 -771.043568 -645.154842 -528.902493 -424.350085 -332.660012 -254.195832 -188.656436 -135.225718 -92.723348 -59.745842 -34.794329 -16.414271 -3.526550 -536.955566 -507.943043 -514.735807 -487.367298 -457.986870 -442.928984 -389.648685 -387.902053 -334.213892 -334.484425 -286.224881 -286.780872 -244.350791 -244.902758 -207.881418 -208.384828 -176.238850 -176.689321 -148.895536 -149.295510 -125.363020 -125.716165 -105.191077 -105.501286 -87.967764 -88.238926 -73.318968 -73.554874 -60.907343 -61.111627 -50.430733 -50.606837 -41.620228 -41.771370 -34.237963 -34.367122 -28.074748 -28.184655 -22.947641 -23.040778 -18.697508 -18.776114 -15.186644 -15.252720 -12.296478 -12.351804 -9.925414 -9.971558 -7.986807 -8.025147 -6.407106 -6.438842 -5.124150 -5.150322 -4.085637 -4.107142 -3.247749 -3.265354 -2.573926 -2.588288 -2.033793 -2.045467 -1.602214 -1.611670 -1.258470 -1.266103 -0.985551 -0.991692 -0.769547 -0.774470 -0.599123 -0.603056 -0.465079 -0.468211 -0.359974 -0.362460 -0.277815 -0.279782 -0.213789 -0.215339 -0.164045 -0.165263 -0.125515 -0.126469 -0.095760 -0.096505 -0.072851 -0.073431 -0.055265 -0.055715 -0.041806 -0.042154 -0.031536 -0.031804 -0.023722 -0.023928 -0.017794 -0.017952 -0.013310 -0.013431 -0.009929 -0.010021 -0.007386 -0.007456 -0.005479 -0.005532 -0.004053 -0.004093 -0.002991 -0.003021 -0.002201 -0.002223 -0.001615 -0.001632 -0.001182 -0.001195 -0.000863 -0.000872 -0.000629 -0.000636 -0.000457 -0.000462 -0.000331 -0.000335 -0.000239 -0.000242 -0.000172 -0.000174 -0.000122 -0.000123 -0.000083 -0.000084 -0.000051 -0.000051 -0.000020 -0.000020 0.000015 0.000016 0.000062 0.000064 0.000132 0.000135 0.000242 0.000247 0.000418 0.000427 0.000702 0.000716 0.001162 0.001185 0.001905 0.001942 0.003103 0.003163 0.005028 0.005123 0.008106 0.008257 0.013002 0.013239 0.020734 0.021102 0.032846 0.033412 0.051640 0.052496 0.080483 0.081761 0.124218 0.126094 0.189646 0.192353 0.286106 0.289936 0.426073 0.431379 0.625716 0.632897 0.905252 0.914726 1.288892 1.301028 1.804041 1.819070 2.479375 2.497239 3.341258 3.361413 4.407958 4.429114 5.681068 5.700876 7.133643 7.148347 8.694714 8.698838 10.230113 10.216494 11.519420 11.481360 12.225224 12.172506 11.829559 11.886355 9.264242 10.429446 5.754057 8.407820 3.966665 7.015436 15740.982506 17198.797480 13278.949980 17646.654526 17812.900949 11363.070944 14141.298109 16040.667188 14067.568371 11689.285241 14159.671501 17715.667757 15014.139976 11494.361787 16945.162863 11198.794319 8829.339002 11543.821634 12255.535330 10626.166585 13306.987819 11954.986399 17346.081598 14366.024425 17745.515206 17394.787183 12917.941918 15674.550645 9543.475033 12953.101776 11595.953916 3581.938336 17199.392709 15038.361411 15075.497408 15823.081999 8657.791037 13659.145238 15169.573987 11496.537733 7211.814556 12306.025585 8077.872112 13876.488088 12676.442285 6096.359006 14843.474416 18083.195138 15880.736465 13690.690378 14429.476470 14257.926465 6119.514283 10935.081154 12003.894067 14270.732328 16717.621269 16492.108096 17988.604739 17029.625457 15289.099585 16342.120346 16179.533760 14248.555316 12560.053996 16087.885519 17744.114145 15398.674252 18335.932335 17081.959795 17228.712520 16344.576127 15733.037720 17428.166689 14842.753481 14029.918020 7906.571808 19670.424945 18242.003142 21582.629166 17255.781238 18295.587617 17608.834939 13849.532648 18073.120448 18491.695004 11677.858220 12123.382180 19222.636483 20587.546812 18060.447068 17991.401056 20736.526961 18017.768033 14017.259441 17609.784797 17856.273768 11934.177086 16245.106684 22978.471346 19794.592327 16098.071689 19977.365880 13331.504666 22692.395597 14484.269841 16776.257880 18239.298934 6946.920790 13920.559999 22031.708559 19533.936796 22822.436047 7155.115682 22440.630605 13867.013675 20145.142799 10396.580867 12465.614853 10134.651087 6243.397978 22096.444607 22578.063575 12768.365595 22643.429955 8817.450473 17503.516622 14702.360734 16391.020783 16837.110362 17750.417322 16335.297243 23262.135518 20484.385837 22132.479595 19732.413650 15167.484355 18785.454367 17145.479051 13315.277705 21346.343202 22380.222850 15406.787339 22763.041280 20916.738121 23113.430853 23073.338022 21097.162069 19828.302750 18952.569218 18251.312755 20132.032465 13105.326613 13155.200758 24438.894694 21611.579646 24007.994386 20735.935123 18252.838857 23079.066039 15724.104808 16507.029441 7994.601737 13932.820278 9839.003214 25147.400635 22894.489611 22368.180612 20110.905724 18957.426438 16164.129055 14831.909805 9832.613804 7325.789049 4978.358738 3003.672614 22337.961819 25527.953358 22152.814601 24171.704103 21306.896788 21063.043718 16796.690860 18006.899627 11359.368993 2693.850347 5917.452534 24666.525898 21332.061091 22625.558993 19111.809023 15317.594524 9354.595505 6071.830951 8415.748465 6583.554013 6083.018354 4698.814935 27472.310784 24343.252095 23097.844024 23176.706816 18704.596546 10566.899366 14697.918205 9796.425651 9445.746710 5673.692145 6272.369213 26901.812188 24007.386436 26514.088324 19063.652286 12511.596886 12273.726013 11399.549591 7815.057285 5867.310131 2937.684798 4056.829660 24978.754668 24771.203853 24565.322561 21666.964855 14405.760516 8449.514123 8463.969305 7269.319114 3906.116467 3993.296693 3608.145080 23633.960486 23034.694208 20912.448788 19517.419625 17686.047470 8549.922232 9135.030429 4983.151595 4892.793438 4625.544727 3022.467121 26222.403513 24058.013371 22229.702409 15008.065425 16895.154460 15168.951149 5842.240860 7606.731619 5282.220940 6919.742099 2010.771571 24145.267392 22401.321370 20117.812511 17356.282405 9190.489651 13146.458317 14778.668148 12299.915266 10102.156142 5253.046409 2087.512313 22317.743982 22031.434975 20224.266850 17397.023591 15344.998621 16718.178549 11637.442293 5261.008023 12884.333797 6176.001960 5081.398460 25344.371970 23437.735648 21906.285109 23981.293779 20450.026857 12705.499915 10811.946456 8366.980425 11773.104232 9791.436732 2491.137841 23727.630203 22312.971633 21518.671599 16515.751663 21082.109533 8497.805201 15237.278771 6044.173100 6694.354082 2600.840819 3136.384661 22417.044235 17675.120689 16219.525178 19562.076776 15111.628481 19476.524472 11957.087434 13793.524176 4831.224423 3449.699471 6585.390215 23115.373117 24640.757669 19563.764209 20146.344203 18368.587132 13042.611577 6326.897638 8675.020543 5953.607120 6070.328711 3609.453510 25148.685659 22070.408477 18073.466028 13831.200841 15554.745811 9718.713285 11729.849525 6032.152860 9903.393133 7197.051180 3299.769992 24767.643336 19384.325269 23957.481154 17071.561640 17028.813035 6711.078601 10434.352731 9930.045523 7080.314613 4855.255022 5320.798843 27081.851777 24722.728340 18526.291843 19471.234733 19165.821969 15659.636959 14522.172925 8501.613974 9909.032126 8085.993993 1167.489422 24463.113583 11316.051083 19755.530737 17392.646759 19917.008596 14205.751933 8448.088825 11981.959228 4464.805735 6043.294339 4339.120165 27213.195033 25252.103178 23801.260593 19240.221413 15522.960233 11513.215738 13388.986441 10074.980967 5990.678255 4438.687912 3732.575393 25106.145717 22384.033932 19718.630518 18079.877928 18274.388054 14660.048402 13653.492214 6587.762302 4571.759695 4535.691929 2586.302840 26429.055393 26100.703819 22026.553217 20193.434712 18239.910605 15732.685283 11689.229220 13339.283074 5829.828811 2623.017993 4240.621090 25200.385582 24857.562524 17909.974541 19533.153024 21616.721201 13276.438020 14530.661577 10687.733621 9507.608593 4984.554132 301.282117 21083.903509 21425.845032 22384.516482 21311.311052 18222.599473 10345.453317 13136.849004 11323.812909 15534.251557 3517.918969 4517.313725 27527.246986 25911.763841 21759.515908 15907.415626 18342.676334 9999.273848 8197.577015 5061.644902 6628.825346 4133.438729 3348.730270 25510.094857 20908.993535 24089.113740 16614.701703 6351.063898 10741.067811 6203.078357 5705.334340 4846.808132 8109.809047 1012.314404 27767.149271 25882.242918 24675.814400 19359.170320 17823.480376 10973.822229 8049.153835 5547.174242 9356.442973 2437.261851 2973.512750 23221.815735 22936.343394 21506.657508 15690.948780 12267.904104 10923.424840 16128.266258 7021.131311 4762.522180 3245.033846 4009.709380 26925.135287 24609.530555 20164.908412 16019.733145 15892.303066 9862.480069 11378.757019 9251.024216 5915.698562 5075.256437 6302.993954 24027.773995 22707.331606 21861.812461 21967.965635 12240.614497 12171.134661 8304.601202 6758.679782 5632.801213 4716.663568 3906.342396 27467.076946 23906.300207 21567.545291 10739.631477 13737.880109 13139.081870 7181.185177 12622.678839 5172.600885 7646.470738 2382.158452 24026.005532 23135.249917 23567.061839 5933.755130 6025.322671 8056.137770 8752.103873 6999.462711 3740.640810 8525.322411 774.651607 24665.153015 18204.794266 15716.510459 19500.872252 9175.963594 13661.838903 12705.067875 3922.675489 5769.572667 10747.264340 4280.309943 27215.775835 24768.025329 19426.056174 18531.174513 13063.274218 11024.902169 5517.724829 15458.689253 7759.103571 2206.072630 2722.088073 24039.239112 24414.192625 21865.083261 15463.808373 10385.108365 16068.917802 16008.142564 6580.228075 10208.458587 3490.697992 4247.276907 21405.224389 21385.883874 21147.669046 15827.322441 15974.008970 12942.560011 14560.597923 8675.380083 10549.028993 6005.668725 2193.016041 21564.475927 18668.509120 21216.025065 17726.500476 13361.127417 15982.969228 11181.836335 13140.776716 8820.836792 7733.002878 4544.940892 25878.622794 22332.918969 17768.983807 16372.697803 17145.542955 13306.719754 13521.145846 11164.535372 6351.035604 5634.207089 1143.127416 23969.004120 24977.423635 21237.170804 18637.644288 18191.846576 15213.044443 11388.384627 8915.513001 10021.238883 8714.852350 3152.871590 23063.334230 23459.266108 20718.930653 20890.745575 18782.376341 16164.168531 10144.461154 9482.051588 5061.518880 6212.205196 1754.894837 25217.529278 21650.608385 20690.011059 19318.328074 12795.278374 8845.826747 8240.966441 10147.683169 2710.998484 4246.660473 -22.071578 23353.668136 21806.003976 19956.953585 18171.486844 13635.321142 12799.893149 9915.121442 7136.041465 4586.030702 5451.318075 3668.441820 23152.493451 21574.215505 21490.828397 16346.295989 13721.961990 10891.477889 11807.226981 8485.751602 6402.143906 4855.813148 6573.373419 22228.538185 19433.561011 16781.715731 12485.056141 16985.041544 13585.909381 12846.711723 10271.444518 9971.675169 5532.734283 2328.881926 22023.560251 20768.248501 18956.924325 18803.035948 15141.213871 15135.118182 12917.190665 15638.782730 8190.844570 5188.080517 4086.091601 20629.028171 20043.493763 20805.582345 18496.239199 17493.024841 15908.695942 11578.530277 10877.239958 5281.805907 5835.457046 6454.862147 20278.718662 19356.864499 18231.301024 17573.430605 15364.267521 15208.651147 7748.760102 6881.043769 5028.211705 5304.038278 1509.018124 23827.097393 21433.032346 18576.952026 16348.558422 18340.222143 15155.942951 7359.435583 6646.816442 8579.847935 4015.161685 2265.102614 21463.054046 21342.902044 20565.879123 17058.147940 16446.657942 13114.272275 16735.120125 6695.093554 4764.266474 785.485488 3781.859851 23701.129345 19733.513584 19427.229046 17095.646420 17490.670174 15322.339799 11106.163293 11029.966018 4240.022940 2002.639119 2642.455574 21842.288818 21054.402378 20539.250876 19356.834645 13410.025881 17056.507453 12334.018109 8532.260417 7483.733479 4918.387129 6448.659890 22165.349397 20506.750816 18953.117262 18225.111732 14489.085458 14551.427291 11212.825886 11069.510140 8314.935201 2973.822795 3451.966882 23789.312801 22038.629262 21472.868336 19900.427923 11697.643294 13833.556609 11626.691325 6465.300141 4688.091643 4793.846525 3802.445972 22223.616768 20220.563009 19450.078028 18257.938820 12263.520994 9779.685633 7534.591669 10289.703584 6770.558166 6366.962759 2498.890611 23600.452649 22662.054896 17672.649938 16469.163785 14786.041006 9715.240175 11201.051947 6563.938184 9720.933001 4865.770220 -441.474774 23388.587113 20485.623133 20523.531599 19565.212447 16534.013817 9848.885555 11687.049526 8059.071689 5945.780283 7078.934138 2540.684659 22220.457263 22651.660194 20109.608013 20646.203337 13327.241930 13716.683155 7122.489628 10608.292529 8036.584411 5403.996629 2632.567508 22570.859276 15470.243329 18296.355599 18833.743849 15553.900188 12102.226471 11619.412927 8463.179534 8035.172584 8329.251813 3368.777815 21100.625009 22314.180054 20598.707597 17022.002420 11847.217600 14387.282633 11404.016209 6919.524589 9261.235437 2888.727339 1458.653371 20859.773337 20375.190733 18271.710673 18167.530763 16409.019980 15454.089762 11284.548299 7539.416980 4184.029443 4699.277661 2860.163639 22991.648742 20173.563180 18653.916976 16675.068086 16710.835867 12849.213538 12319.191139 10380.068206 7186.141013 4799.712691 -4773.144963 22210.261817 23377.873422 17441.936809 18542.472423 14283.533631 9794.867615 12773.675762 3118.764901 4575.078003 10279.124354 5128.217544 21125.302099 20815.379952 19908.894797 22235.565145 12998.605918 13457.498913 10045.369977 7846.886400 8057.747795 2112.121449 1120.116717 18647.526545 18907.959595 19260.743052 18113.933291 15288.511568 12585.608366 8799.000632 10622.394648 4847.572275 4523.748690 7669.296071 20823.812297 19245.543131 18597.169387 18905.053217 16889.804335 14638.569259 14637.527045 8338.624439 8329.540180 4491.262340 5505.934747 19268.771076 19101.677024 17649.692902 19234.682423 14338.589777 12440.788790 12176.747546 7600.251304 6318.683396 3080.718558 6955.645032 21756.510651 19391.854044 20161.092792 16126.805836 14976.640911 12786.072163 10393.508262 11226.785181 7089.570645 3673.034670 2711.089777 21067.189801 20381.667511 19403.556841 17260.002758 17245.804013 13162.062455 11306.156592 11240.931971 8623.927747 6285.602020 5032.765691 20536.306402 17643.473403 17695.224705 17618.049246 16286.857561 14084.290365 9196.380751 8436.926537 7056.836997 5854.067504 3769.937539 21393.977315 17936.095358 19364.553082 14200.389466 14941.430477 14128.720933 7367.023265 9121.569557 5545.149414 5681.343356 1911.251983 20058.626581 16180.087269 16430.043279 17023.134902 15874.344280 10188.382454 8834.991366 7031.505896 7169.008239 5096.076409 5911.649533 20303.556224 20112.737713 12223.612558 15607.517092 11804.737536 11732.513934 9081.856529 7893.400224 486.007693 3207.416315 8535.450741 18823.653625 13469.286223 15726.999139 15037.666558 11047.898127 12388.960571 10430.359849 5944.016364 5134.021918 8191.755273 2665.585158 20021.856007 17187.179293 14412.043752 14315.440285 10167.812689 12805.042372 8694.183521 5118.971063 5826.992634 1593.803766 -1445.873230 17447.485185 14226.201801 15394.817817 11195.257031 12423.317519 11306.905841 8646.888442 9785.220004 9433.066798 1978.537051 -186.797652 18318.925142 18228.798754 12306.487783 13292.561451 9930.628901 11743.369744 9356.287120 8829.245021 4565.848510 2720.019134 4248.584985 15528.029374 17178.276543 14305.567768 11914.608826 10675.912896 9105.353858 8947.741497 9102.442299 9108.528704 6385.853909 892.332579 13455.525549 16243.302966 10102.963141 15785.815336 9363.656076 10546.465395 9049.869120 8479.804237 6192.358057 2572.808070 8536.757756 15466.474877 16302.043291 14016.774842 14552.124388 15854.615331 10378.642970 11224.197294 8968.214091 9083.440998 3228.046236 4232.912675 13667.953571 12949.689889 12507.429652 10686.923079 11493.426556 9864.115469 7264.972220 10865.834489 7493.018116 9642.569767 7397.739866 13270.358504 14469.696805 11345.689854 9840.870416 8455.092389 9090.547754 8224.475478 7385.037465 5767.501372 5708.181815 6554.180583 11757.663476 12212.546206 11089.814229 10993.398229 8135.313596 9056.927129 7526.652518 8469.700679 8468.834478 6204.570911 9562.509721 11244.702690 12173.880951 9501.284881 7399.200438 7042.282045 6558.603390 9732.221401 8552.979654 6422.038207 7252.248591 -971.693368 10850.496346 10231.682753 11704.369777 8900.604340 8699.242560 7020.413243 8700.870515 7557.359973 7048.767904 6241.379648 7253.101495 9447.594994 8469.602042 8966.812694 11756.570219 9340.260556 8494.477162 8682.203139 6444.432842 6924.619621 5016.448861 2290.891044 10081.598319 11712.632925 11954.918788 7493.525991 6471.172749 10148.536112 7302.454904 7015.765457 4867.034334 7153.772462 4265.596322 9067.735756 9162.000731 8257.100405 8002.532406 8047.110878 7294.266186 7868.681277 10535.386618 7135.736978 8208.220736 5471.343577 12829.464900 17264.966902 17185.008966 13534.793542 10549.094433 15022.569847 12364.606481 15158.548576 15241.417332 12494.598933 9540.647440 8495.312394 5728.293327 -5463.120825 13633.344337 10361.623994 14535.138105 14618.895174 7014.639522 16979.985524 9078.733091 8105.291368 13694.833271 5484.814970 8450.208568 7736.796134 3013.802597 8931.890435 7082.811342 9721.207905 9302.694452 6096.982922 7209.941500 5964.044566 8808.371763 7503.612074 11783.946018 5579.786854 4511.634960 4839.365846 4419.773466 4360.842986 11150.879862 7065.284420 9136.778647 10233.488642 9753.217119 8323.692144 10861.745321 9548.726559 3465.838253 10455.415353 8795.951440 4947.325804 5316.678289 3188.444503 12806.479947 15836.846186 8055.683300 6981.011047 12766.332039 9084.633300 10042.965033 9011.388831 7553.766173 3452.633932 6927.673262 5643.277042 3991.904267 3170.234148 10120.762417 15891.269694 8960.343609 15104.850289 11301.390789 13213.308074 13931.421528 6571.217489 7273.566115 6675.143377 5525.791644 5189.927764 7838.339689 2792.416907 19960.244925 4340.676729 9630.952065 9765.681385 4048.686143 11143.152762 11329.386922 11966.213702 7135.266070 6031.182451 5617.363696 3900.721967 3378.738032 2513.067555 10288.437396 9702.062382 11673.985394 16186.197467 8303.805427 12962.378759 6064.004455 5059.742412 2888.191549 4601.950276 7557.319580 5547.292895 4769.199762 2506.554765 13537.183482 14157.530611 9242.725388 3389.045354 10493.073753 6546.099428 7582.787851 5454.135239 4043.322662 7936.588340 7515.009357 6421.734178 2072.432323 3705.702444 6128.184736 11112.504656 13518.892896 7568.453653 11218.993578 4940.588858 9957.416697 7394.991012 12789.564307 4710.803991 3661.605331 3353.852125 2952.065701 3194.574404 7571.106381 12184.316368 20105.339878 16505.270309 7353.599941 6969.812495 7014.471874 11743.206504 9246.810107 10048.155227 10543.526705 7800.850729 4517.063636 3122.964317 12470.130700 5110.968446 11550.420608 20011.775798 6828.038091 12760.375216 4050.557928 15515.421842 9315.809258 9260.604751 8219.276640 14098.257127 3022.690963 4278.403139 8161.973129 4712.499911 3330.659609 13198.606741 6939.620542 5311.171032 8698.880318 18745.662715 19136.736348 9339.527748 5041.261517 4914.881805 2770.344502 4191.555017 2078.052511 8779.932319 6497.550264 5941.426121 8474.334141 5620.256619 8485.045325 12807.238516 6523.119249 14585.180972 6842.421969 3148.941491 4741.601628 5215.735730 2564.094339 2869.551571 6099.207802 7355.937410 1728.991010 5274.816502 7255.398363 5557.353998 2833.186000 2696.892565 4195.288806 3422.524114 5204.568731 4338.589498
</DataArray>
<DataArray type="Float64" Name="Velocity" NumberOfComponents="3" format="ascii">