<VTKFile type="PolyData">
<PolyData>
<Piece NumberOfPoints="1945" NumberOfVerts="1945" NumberOfLines="0" NumberOfStrips="0" NumberOfPolys="0">
<PointData>
<DataArray type="Float64" Name="Pressure" format="ascii">
 28510.143463 26666.410524 29551.720241 27303.162319 26659.646397 28181.050598 24366.259448 27068.439708 24394.042056 26605.082409 24236.926203 26826.914011 23751.765466 24774.484313 24634.181170 25344.970362 24765.788069 25542.089161 26788.815349 26624.170817 27309.343617 25696.277223 28396.577909 26432.744518 24094.616053 23998.044683 23802.869770 25130.113019 22962.953090 25598.890770 23537.687471 26026.381968 23101.028992 23530.918194 26212.116408 25035.897331 23242.362930 23442.620376 24024.764505 24539.162880 24441.073516 23282.595527 27305.446631 24226.753586 26876.465994 23698.597425 28038.657658 25435.055175 26538.940361 24169.959476 24699.878884 23903.225049 22612.682262 22961.967212 22538.390554 23482.812167 24096.312972 24208.585318 22414.572504 22237.630205 24465.571473 23514.678702 23633.319229 22415.132281 24158.197198 23386.189767 23876.448094 22946.178360 22517.465393 22376.915803 21360.599352 21922.917031 20240.946475 20583.626473 22190.952233 21295.199274 22215.044278 21100.637417 21567.879731 21001.224223 21878.494459 21593.572059 20797.326809 21379.840066 18672.764781 19877.749052 17508.279737 17659.381115 19543.926547 19167.824353 18552.845072 18842.140283 20230.021369 20314.640146 19816.224229 20266.433490 20407.240113 20482.461964 19504.915802 19929.783773 19536.820936 19563.604631 20201.100972 19199.887123 19236.956283 19256.930841 17143.812992 18190.355812 17900.598164 19102.171229 16760.473003 18133.716432 17631.409455 19173.905459 17996.321237 18289.903047 19428.726691 19309.642828 19226.408146 18153.644798 20397.290108 19656.492697 19084.951020 19109.543614 19111.436793 19473.842421 19922.692666 18982.950275 20029.768230 19395.460481 17996.896853 18709.113278 19291.043694 19490.784614 19386.095904 18721.218631 19799.670334 19689.144057 17602.838723 18492.517935 18624.378690 19639.937205 16986.208238 17875.086256 17403.358750 18302.123022 16690.733945 18062.217391 18252.507714 18743.932838 17497.673472 17739.061796 18144.087901 18063.275623 18277.172376 17703.524161 18389.998435 18450.179141 17553.677462 18266.572243 18185.407573 18716.813468 15384.233542 15871.463464 14597.354811 15578.158265 14860.565679 15979.581040 15812.198246 16700.729677 15388.069037 16022.545517 15575.923825 16079.306024 14895.029149 15775.436374 14938.466367 15911.205735 14037.450252 15072.309748 14856.720605 15329.935928 14776.132123 14957.028959 14571.896058 15261.971448 15332.640989 14876.671143 16042.249294 14627.753016 15253.269017 14844.630179 14510.378301 14424.022721 14158.416108 14714.449907 13788.902061 15041.403942 13427.640054 14734.160375 12893.681690 14253.946655 13004.527655 14090.029791 13255.459406 13936.250706 12626.330942 13492.015096 12847.391120 13291.494903 25891.701435 26952.139499 25402.218323 22793.919017 21201.149413 20569.852264 19664.711713 18114.196968 16762.743601 15097.803793 13495.750977 12690.369621 11646.034147 10436.715366 9679.296215 8440.796920 7227.765442 6093.457226 5323.366393 3708.678908 1552.293028 337.787098 211.643176 286.389657 115.310855 -243.643715 -695.101060 -1173.451596 -1631.490600 -2036.986040 -2370.769798 -2624.740903 -2799.336556 -2900.786767 -2938.603706 -2923.596827 -2866.498550 -2777.140979 -2664.057602 -2534.373966 -2393.871461 -2247.138699 -2097.754253 -1948.467774 -1801.362842 -1657.995545 -1519.510352 -1386.747965 -1260.424506 -1141.826474 -1037.107607 24988.078842 26567.510453 25923.637614 23644.713140 21973.442459 21635.209275 20592.525863 18900.777879 17647.119336 15964.372393 13817.979883 13321.003722 12019.678223 10377.954140 10171.182661 8212.020118 7221.566001 5662.004695 5176.828315 3132.372962 -47.503849 -705.161776 112.893314 250.624687 78.472107 -265.833986 -704.369504 -1172.784967 -1623.706947 -2024.630641 -2356.075164 -2609.516829 -2784.893597 -2887.941844 -2927.755038 -2914.832232 -2859.704823 -2772.095181 -2660.493421 -2532.024312 -2392.492151 -2246.518929 -2097.718818 -1948.874732 -1802.098984 -1658.970380 -1520.644592 -1387.927599 -1261.240180 -1140.028623 -1018.708759 14462.129035 13149.144538 11845.994734 10069.103196 8382.864194 5480.602696 4233.192768 2505.581142 514.998119 728.042274 1131.916522 1246.951906 1288.768309 1266.055188 1191.017439 1076.151382 932.885580 771.153732 599.426674 424.812364 253.136201 89.013344 -64.066125 -203.630979 -328.103770 -436.663921 -529.107232 -605.709610 -667.101730 -714.159694 -747.914808 -769.483496 -780.016388 -780.664082 -772.556112 -756.789367 -734.422390 -706.472656 -673.914654 -637.677484 -598.641380 -557.633129 -515.420762 -472.708065 -430.129511 -388.246091 -347.541919 -308.418549 -271.166581 -235.791654 -200.918377 13224.507537 12231.714677 10843.127673 9041.900680 7384.222138 5463.754509 3896.183318 2592.203990 1582.170509 1174.624361 1169.328638 1244.212595 1278.205883 1255.751339 1182.690037 1069.987049 928.690606 768.665764 598.386548 424.973940 254.266157 90.892717 -61.638402 -200.834256 -325.092763 -433.567226 -526.027349 -602.724390 -664.266958 -711.512464 -745.477277 -767.266608 -778.023233 -778.892658 -771.001381 -755.444621 -733.280018 -705.524451 -673.151823 -637.090505 -598.219823 -557.365521 -515.294555 -472.709718 -430.244723 -388.460384 -347.842857 -308.807569 -271.729562 -237.120822 -206.779188 -961.392501 -926.375007 -931.938481 -898.285678 -857.264999 -838.121025 -764.394961 -761.931078 -685.154591 -685.284213 -613.310995 -613.850050 -547.677633 -548.256993 -487.797561 -488.355774 -433.327342 -433.853644 -383.935658 -384.428090 -339.291154 -339.749569 -299.064006 -299.488856 -262.929167 -263.321254 -230.569371 -230.929755 -201.677622 -202.007564 -175.959181 -176.260097 -153.133092 -153.406509 -132.933299 -133.180823 -115.109403 -115.332683 -99.427098 -99.627800 -85.668335 -85.848118 -73.631243 -73.791741 -63.129864 -63.272665 -53.993707 -54.120343 -46.067186 -46.179121 -39.208944 -39.307568 -33.291105 -33.377725 -28.198471 -28.274310 -23.827684 -23.893879 -20.086381 -20.143982 -16.892339 -16.942310 -14.172638 -14.215860 -11.862849 -11.900124 -9.906249 -9.938300 -8.253077 -8.280558 -6.859831 -6.883326 -5.688611 -5.708641 -4.706507 -4.723535 -3.885036 -3.899472 -3.199629 -3.211834 -2.629156 -2.639447 -2.155508 -2.164160 -1.763206 -1.770462 -1.439065 -1.445134 -1.171886 -1.176948 -0.952183 -0.956395 -0.771948 -0.775443 -0.624437 -0.627330 -0.503987 -0.506375 -0.405857 -0.407823 -0.326086 -0.327700 -0.261374 -0.262695 -0.208976 -0.210054 -0.166615 -0.167491 -0.132401 -0.133110 -0.104765 -0.105336 -0.082406 -0.082861 -0.064235 -0.064592 -0.049336 -0.049611 -0.036929 -0.037133 -0.026333 -0.026475 -0.016944 -0.017029 -0.008205 -0.008235 0.000417 0.000439 0.009443 0.009517 0.019399 0.019527 0.030824 0.031006 0.044265 0.044503 0.060268 0.060559 0.079347 0.079686 0.101937 0.102311 0.128316 0.128704 0.158494 0.158860 0.192051 0.192340 0.227926 0.228057 0.264133 0.263991 0.297391 0.296820 0.322668 0.321458 0.332608 0.330486 0.316849 0.313464 0.261203 0.256113 0.146714 0.139377 -0.051408 -0.061651 -0.364977 -0.378910 -0.834103 -0.852643 -1.508531 -1.532729 -2.448978 -2.480020 -3.728431 -3.767626 -5.433302 -5.482062 -7.664363 -7.724177 -10.537349 -10.609740 -14.183120 -14.269596 -18.747251 -18.849239 -24.388944 -24.507714 -31.279140 -31.415718 -39.597747 -39.752813 -49.529923 -49.703662 -61.261493 -61.453173 -74.974055 -75.179994 -90.843276 -91.045006 -109.061809 -109.153693 -130.006482 -129.371773 -155.457104 -150.116117 -176.462419 -166.959986 -185.168117 -175.316880 26143.802762 27916.974484 22684.819679 26939.642162 23801.214273 22218.799184 24405.158865 24148.025186 24884.963033 20016.201669 24770.030494 28265.888301 27247.309098 22866.739581 28309.155258 17020.023229 12214.472867 18302.730983 22178.460706 18910.262557 22593.959650 18466.434335 27416.053618 23506.090156 28821.074169 26323.645972 24731.260716 27612.046722 19457.082073 23077.374499 19240.762765 6529.005576 22655.459789 27170.505972 28547.117988 30038.222693 14138.620126 23463.748279 25091.950033 22012.713762 12894.161662 23524.022996 15148.884508 26550.842040 18139.859839 11953.590502 27711.654416 25263.235001 27382.496801 21167.735147 24781.339428 20913.435574 12647.154711 18355.535740 20958.069726 24299.105426 25189.722055 24601.001020 26068.180115 24178.513222 22592.435068 25708.348500 24768.182614 23964.622945 21643.078458 26370.776286 24708.146649 24931.284745 25539.515635 25312.301823 25750.888511 27381.147244 25392.117387 24537.908643 23010.933346 20390.011438 13484.464967 24439.415301 27462.696574 23848.478749 21454.280906 25087.008999 22327.575122 19334.035769 25353.552265 25808.277937 16266.995562 16697.979433 26574.287207 24377.985181 20380.534603 27818.487449 24501.335298 20393.654250 22223.068215 26980.823910 23675.839071 11980.042408 20210.059746 24470.295637 24751.277301 22714.823309 26388.869132 15450.405074 24027.560606 17109.865099 23259.495685 24146.578492 8192.711325 18646.755332 23663.588739 23725.233818 23487.731239 11385.197210 26123.760734 17124.681368 23089.445356 11140.138027 15902.523956 10214.955133 9106.111308 25545.570513 24978.907374 13772.588526 25853.526380 11030.547316 19823.028654 13820.995235 16484.007851 17941.236065 18149.529619 16721.545431 23610.204454 24558.004376 22372.676849 22203.226073 15427.669274 20809.940792 18717.456666 12606.518494 21575.036571 23025.580744 15882.230892 22850.920316 22961.850262 21394.592136 22093.155658 23634.114104 21973.870760 18703.551356 15686.945216 21074.415243 11213.609947 15789.849941 23793.549471 22802.716299 23021.080482 25174.679979 20813.391428 20960.912059 16849.952336 17643.933531 10886.770387 11667.228068 13133.990919 23930.460883 22410.822122 21764.046479 17852.138851 15307.655581 16903.870057 18704.188542 13575.763464 7846.691401 9155.247636 2835.741827 21252.786729 22566.773923 23881.076329 21043.366033 22611.144480 20878.298348 16565.064844 20239.436125 14163.655701 5918.008558 4162.431413 22345.216243 22286.148999 21636.227004 19255.858294 13945.620341 7245.062828 7233.642166 10017.637199 7353.352185 3594.348308 6088.927167 23387.647926 21177.094056 22575.066530 22617.437657 21048.768215 9162.646128 15977.093197 9465.901775 11151.167342 6957.937975 3834.064312 22862.309991 22352.837729 22566.330572 22151.690159 11085.277024 12120.837080 11197.783418 9370.367958 5203.550863 3557.299872 3863.748802 22857.762885 22562.265094 23140.066495 21376.534340 14473.854988 9361.881809 6019.192764 5879.913011 5737.040960 4029.960325 8271.293948 20566.320160 20274.162103 19874.018173 17230.933714 14259.361213 9568.953627 7806.917950 5862.617039 8030.364613 5112.595696 3654.093618 22739.470488 22517.064663 20381.896451 14492.894365 15412.826677 16309.816603 7588.047895 8713.583956 8083.230784 9045.957263 4296.226963 20265.622065 22057.288711 18895.751735 19226.494415 12721.665974 13150.213184 16341.696915 14495.502698 9613.226285 6146.111847 6181.553041 21371.129044 19356.289295 20411.553481 18171.852739 14475.673658 14874.036634 11346.935480 5840.976394 13766.655785 7747.051950 5686.190195 22521.016490 19735.071816 21679.341464 20263.014571 18513.489587 12734.154737 11086.725490 11018.366135 10163.860589 7135.042253 3833.855815 19124.155851 19807.364175 16891.437337 16482.418849 19765.227124 7598.123662 15096.837346 7852.640937 7603.198416 5657.121065 3516.049743 20701.838639 19321.515894 16410.527856 16666.215372 13523.136133 17573.344473 12846.241396 14030.917513 7660.414447 7158.862381 7361.856098 21306.847194 19218.400246 20588.321222 20009.825982 17018.998898 11855.176184 9415.448603 12553.592909 8056.302413 9629.522301 4746.365155 20316.886046 19823.478099 14202.890854 11967.874114 15438.424502 9945.173996 9658.810371 6386.008492 9563.538010 6200.861214 5549.097348 20353.498193 19601.701862 19469.057178 16823.312671 17360.424315 9605.593795 13021.981737 10787.782874 6838.192194 9907.744345 5677.759744 21862.761658 18794.184729 14039.264012 20029.283686 15568.260035 15323.149115 11140.239293 8788.312629 9183.689397 6936.482992 5692.337228 20394.713438 13629.547689 18763.966013 12044.204688 14591.290236 13969.670314 8568.130983 8847.506144 7212.846076 6033.899407 4327.702488 21011.253273 19619.635848 18982.436762 16370.535976 16474.219049 10043.413626 8162.151909 9357.354443 6000.146424 4618.975889 3731.703072 20167.681856 17184.760561 16670.220428 16889.562256 16385.301884 9111.019548 11903.808151 5785.623537 6355.426243 6575.161318 4308.839289 20908.299126 19981.181381 19213.179615 17473.287281 12713.714046 12400.724117 9477.892802 13563.703515 6231.542592 4435.295022 4553.722477 18995.518857 18532.273082 14497.150052 13445.544474 16832.930470 13676.572318 10829.875003 12104.986438 8490.873392 5817.027521 4089.138461 19139.739815 19225.758073 18163.034628 14343.962631 11910.680093 10717.275926 9640.141292 9246.005343 16620.412205 4019.343581 5313.691892 20539.635966 18372.583217 18406.411280 12152.215703 13164.022755 8728.616291 9553.103125 4457.380564 6995.608286 5407.454907 5039.996458 19225.238728 16769.994736 18940.818180 14408.445077 6768.667319 9941.371407 7181.446074 7856.539992 5779.849298 9217.342727 3629.644095 18439.717505 18698.459381 17228.995214 16722.664339 17035.895716 10864.994413 4539.734624 8622.369744 8824.070433 4313.572126 5089.482006 17475.934096 17522.981857 15170.490405 13193.233186 12636.535615 11027.146646 13604.826835 4791.313668 5515.655207 3849.393742 4511.482972 19011.525477 19183.347969 16356.746110 12723.393871 15059.993266 9995.718778 11835.791882 9564.535537 8385.629033 5523.753864 6578.958161 14971.323739 20421.887280 15623.358775 16700.181505 11813.946628 11128.829728 6277.368488 8469.521471 6867.063671 4615.467600 7157.443598 19301.629127 20569.485808 15800.134688 9441.849499 13614.770572 12180.293285 8067.731608 14222.855131 6150.716763 9524.689008 5881.120242 21219.038716 16988.547943 17452.292270 6002.943052 9400.283655 5922.703084 5621.102862 9476.902732 3661.134091 9704.930417 2649.747212 18899.465169 13369.088301 11680.615005 16148.090775 11751.034471 14180.921332 11842.165402 5547.148167 8412.259434 8112.442100 4778.854833 20214.907659 18843.533521 17013.567279 15554.477010 12199.499603 11410.595668 6330.587526 16010.946832 8212.416378 4694.850842 4294.630246 19791.154460 17248.407756 17796.549893 15051.651831 8017.162045 13942.272700 15251.742346 6282.904735 11576.337905 5461.662516 5506.607949 17011.162119 16973.700739 19139.205374 14293.808940 13025.497514 11626.854728 15378.523829 11434.572426 11095.585541 5233.426525 3658.816519 15188.881522 12697.560501 19452.480531 18431.148212 11275.846840 14014.583948 10573.717405 12473.405629 9284.319380 5466.537271 5645.605469 19007.235001 17833.957942 14611.592248 15297.683118 17732.027130 13714.149746 12972.401848 12312.918664 7854.832085 5790.606870 4714.003905 20030.531178 19854.984616 18734.923846 17611.028151 15480.667113 15256.593328 11506.852363 8096.495239 11686.865342 5066.740759 6775.766847 19956.115073 19381.655218 16489.411834 17874.529944 17244.252512 14741.008722 8927.706397 10195.750751 6044.980958 7310.639257 3834.856221 18962.163867 17274.405020 18470.582338 15651.084161 12828.962279 8570.419536 10421.362350 7392.666217 4651.965522 4714.198670 4611.004288 18847.199340 21227.491693 19555.371215 13116.399153 13472.218463 9849.915067 8006.908796 5983.703311 6378.955203 5402.689852 5102.175099 18903.737776 19988.953565 17585.997304 12657.148019 8667.722383 10548.532142 11684.731852 6337.082995 6219.374352 5479.697633 3076.554612 19700.305877 19855.410890 16004.155333 6895.549997 15199.520796 9508.400171 12425.356810 7601.848368 9013.147807 5135.211420 4948.378222 18340.696107 16896.028401 18196.369026 15446.822638 12857.488817 14362.951477 12509.810504 16935.310270 6816.648060 4975.769649 3761.265835 20974.320724 18207.716666 18406.639871 15681.308887 15094.873055 11947.962943 11565.297496 11163.578012 8019.374809 5902.586247 7751.314980 17901.235121 15217.937970 16925.509516 17599.173716 13185.604565 13262.515469 9333.386940 5238.002402 7281.147014 6782.004784 2424.690885 18430.490946 18969.228040 17216.966880 13627.906442 14659.107284 9872.359519 6231.883694 7181.459628 9273.145396 6699.105355 4084.124731 18280.329390 18835.383988 16918.451856 14920.796515 14267.531666 14171.636620 17751.233705 8155.091639 6805.842792 5246.624398 6712.358242 19195.135462 19015.910372 18459.924093 15522.343501 16234.847019 15389.748700 11945.330306 11358.993969 6803.101867 5470.225277 3950.037110 18654.303469 17323.578821 18382.128799 17847.226437 15863.133162 15281.393772 12938.646350 8230.741383 9091.944008 6684.613625 5516.782580 17447.531486 18696.980423 17452.037212 14429.838968 9341.160393 15068.818953 13711.171572 8815.314860 8667.506315 5969.234975 5134.489573 18936.844562 17156.515285 15640.313207 16902.672600 14772.262235 17970.913709 12289.829556 10271.378606 5928.673424 7353.907288 4667.124294 17983.337222 17394.207314 15947.481765 17266.112308 15903.685434 11296.519793 10813.454485 10677.038743 8537.171160 7802.008611 4654.243663 18873.821935 18990.156449 14902.557875 15588.721151 13149.447339 14038.786120 14907.283877 8810.838862 12410.777046 5993.665145 5231.479753 18935.899332 18532.439308 18405.416333 18421.176931 9716.259930 13190.726458 12174.713787 8763.185496 6918.210187 9601.222918 4645.124195 19070.490902 16560.345889 17314.888685 15676.987182 11260.015361 15642.861002 9920.472902 12038.131370 9175.957619 7809.066224 4119.811127 18811.500905 15724.970223 18207.094979 19674.388044 16485.938003 12106.048300 12751.536532 10288.473882 10311.219365 10508.634939 5422.178100 19126.294644 17537.291891 17790.315746 17919.165711 12117.873384 14224.618585 13146.347346 8099.383519 15251.053375 5133.501203 4433.060987 18167.438324 17142.783887 13546.346916 17585.138440 15512.750940 16731.551000 10406.985481 9099.530496 7165.993369 5874.384844 4174.404256 18665.167813 19246.383425 17401.322741 17234.126267 16655.384111 13042.205638 10943.844157 10187.064934 7930.214365 7692.717666 5327.174881 15680.987334 18170.151867 14511.288202 18888.436826 14512.703128 11542.032270 13047.418743 5568.926894 9214.193109 10192.128083 2042.134308 17848.137947 18821.612831 18161.141889 18266.817906 13814.021514 13450.269204 10551.902159 9754.552634 6424.334607 6743.574968 2935.596893 16810.947991 16901.972330 17991.738985 18053.102613 15046.447899 13020.137126 10439.792994 9387.350966 6064.266819 8511.080501 3069.565142 17665.726630 14947.360893 15493.987008 13715.909620 15808.726355 13228.537362 16030.999896 11479.700647 8189.361029 5722.949788 5879.286855 16375.782410 17014.573721 16423.562682 16411.795527 13099.603478 10083.401939 12940.844367 8689.765506 11181.522905 4608.790402 10521.490958 15892.712156 16213.374696 17139.341567 14175.532936 11340.306376 14403.278479 11718.344614 12674.352416 10530.464078 3684.000698 2961.963542 16285.220220 18212.867453 17824.902965 14972.919866 16378.282386 15318.506019 14054.650244 11679.061836 10135.198449 10179.416353 4697.426763 16757.657818 15510.440920 17735.163828 15443.402571 15360.793599 12494.436719 11061.607399 10171.174172 9675.384378 10423.856512 5177.703254 15540.021034 14268.179640 16931.191078 14598.104784 13899.842686 13508.547141 9427.740603 11744.096666 9335.041280 9279.567019 4804.170741 17270.541126 13752.466650 15526.789007 16787.428188 13857.426915 10689.818339 12513.645242 7571.188944 9167.203392 8450.727537 6264.991117 16447.861784 16096.776364 12526.978738 13987.225189 14910.811975 11734.285363 12295.242032 9776.961459 4109.828172 5774.304601 7122.559910 16351.596825 13709.247458 14013.154062 14928.053829 12690.183882 12683.150362 11323.141906 8556.397415 6257.152177 5439.303096 3648.250852 16171.458315 16216.930705 13476.831851 13596.486865 11673.193539 12952.071816 10378.233148 7175.731995 6081.294147 4869.585473 5514.429954 15389.344918 13896.380260 12309.478135 13184.928077 11457.512599 6578.715776 9487.153830 12507.748642 8581.229303 8438.341794 4146.514273 15752.269257 15959.186796 11392.887273 12159.982731 8694.169319 11202.633669 11145.270847 8744.235324 8502.309873 2553.595488 4536.142839 15363.178801 13689.093257 14728.420634 14515.023254 9235.678461 10763.665371 6195.277793 9778.728798 9052.549829 8777.467935 3024.950238 14939.995254 15623.451176 11610.832280 16586.598436 8782.236624 11231.378208 9065.652382 10993.515099 7795.608887 6446.819353 8177.034409 16299.853561 16356.266467 15199.779034 15745.262457 16265.018673 10136.178232 11203.967350 9305.051968 6772.864102 7198.082604 4634.648468 14277.614614 14194.068819 13289.441857 13574.460444 12221.855178 10507.612127 6530.058380 12515.869671 5826.522148 8108.799823 3081.599261 14305.645803 13219.219652 9419.945359 12410.218191 9534.674405 13041.935383 11236.119893 9557.012953 2300.865048 5015.928038 7434.139409 13371.837748 12427.444740 14649.431902 12733.227530 11686.785100 8892.185494 8870.200957 6377.033149 7164.281965 3370.373676 4276.166903 14219.972129 13039.203599 15203.010369 9230.743211 10151.652222 8085.354130 12008.196135 7194.428017 5863.144266 6950.812139 3146.530985 13590.157950 14213.972559 12760.516448 12341.716198 10956.795309 6465.606549 7431.703655 7620.290459 6289.946265 5740.523110 7812.154380 12529.308000 9830.196179 12950.691462 13067.605055 11895.921181 7408.043739 12936.202425 5531.831825 7194.103665 4899.379379 2818.092300 15035.899568 13721.085611 14893.556897 12782.957223 11268.127243 14979.839155 10109.675878 5837.438285 6680.188591 6502.181255 5558.142751 14633.913024 14056.842761 13433.912503 10848.585898 11941.097330 10476.235734 11820.061920 14187.238777 6225.236678 6420.434507 5236.842642 23368.610798 28419.506143 26050.303655 23715.017475 15892.186024 23063.251548 20119.167918 24631.728029 25426.159467 18555.696820 16632.556568 10890.167792 6994.553691 7803.254533 23965.592382 13664.329047 26244.653305 23799.626648 9679.491291 25220.096391 15239.128849 11123.861709 20659.300256 10414.336939 12445.287085 7792.050741 5332.740916 13857.747650 12752.696793 18460.016007 15389.867465 9522.653707 8084.146079 10356.161014 14515.542240 13788.313626 20063.508023 10606.361779 6770.220609 5673.911341 5416.767721 5811.658932 15781.675413 14356.818834 14127.092099 16457.403713 18775.282334 17479.822322 15122.693690 16996.580072 6289.636685 21664.354902 13980.812001 10346.113280 7979.602836 6863.226366 17622.144154 24513.932987 15142.799574 12375.979789 20957.224056 16172.921784 17343.396472 13650.930397 16289.785409 6746.574334 11285.001807 11871.676728 4500.692177 3801.096850 14898.889548 24342.084662 13878.241497 24542.260646 19119.969876 24089.102350 23797.302505 12314.534648 9902.805947 11437.669516 9381.501816 9038.518513 16230.306357 4363.229671 26772.248802 7600.328804 14875.737214 16939.838999 6669.242842 20835.597835 18097.843274 21687.144843 12100.702715 10869.204532 8719.670114 8329.244886 4833.000380 2244.582707 11337.080723 12399.956450 11473.222545 20089.677972 15174.641815 17345.507713 10258.231534 8549.975207 6926.369895 8539.371656 12774.822413 6601.452057 6090.265685 3329.294964 18828.496366 20795.575815 10790.995249 7675.607254 13859.337428 9896.297825 8633.931255 7181.459621 6594.237811 12817.347388 11305.878627 7837.115792 4706.802518 5641.822311 10104.595548 13309.750455 14127.720796 9766.617529 14866.415713 10348.895555 13577.048422 12372.257897 13574.044178 8142.268017 6869.549656 5617.358795 5296.271072 4760.895471 10030.014693 11298.045186 20593.291249 18309.686942 6294.146095 9643.862521 8223.608434 19051.363186 8552.905486 13287.049808 17847.210255 10733.243689 5807.891315 4620.540840 11830.034367 6911.875505 12323.709033 22607.496408 10537.084692 15732.415897 7680.012476 13643.095861 7597.450530 9979.061889 10217.939149 23159.706862 4455.661884 5418.720261 9088.741654 5479.603323 6163.703619 12843.353084 6947.304071 5718.437619 12460.509448 19265.389405 19239.212546 9466.111814 7330.113778 8162.597478 7464.074933 5309.160164 5461.944432 10264.891353 6205.808555 6546.027290 9078.600831 2525.393248 8458.518079 13895.391446 8242.151452 14202.101802 9075.759376 6699.653315 7796.827444 6519.611165 4214.302563 4512.926224 6166.588181 6826.112821 3842.827488 6387.108229 8218.596197 6089.540230 2800.858353 4698.599093 6143.867007 5035.438471 3964.317788 5514.631454
</DataArray>
<DataArray type="Float64" Name="Velocity" NumberOfComponents="3" format="ascii">