<VTKFile type="PolyData">
<PolyData>
<Piece NumberOfPoints="1945" NumberOfVerts="1945" NumberOfLines="0" NumberOfStrips="0" NumberOfPolys="0">
<PointData>
<DataArray type="Float64" Name="Pressure" format="ascii">
 23507.908571 23948.346687 23331.826055 23604.307135 22448.738558 22923.569152 21551.597189 22080.572240 21368.796057 21834.209040 23179.837311 23508.548363 22957.558551 23227.786016 23029.564477 22368.499442 23727.635300 22549.830167 24751.220652 23099.136609 25217.313120 24565.455614 24106.534976 23961.018520 24945.071279 24606.388978 24384.216297 24103.581679 25895.452613 25829.569293 24284.360974 24680.848450 25249.524358 24831.949951 23162.082479 22876.373951 23232.534355 22620.932649 21886.468006 21554.517649 22520.203065 21686.025669 21793.079386 21529.710019 20557.725737 19582.460780 22265.332625 21228.384152 22323.292081 20736.539412 22205.487671 20672.858495 18740.548679 18562.763929 19632.405616 20303.914563 21867.979163 21186.807315 21931.390630 21469.911797 20990.996130 20738.050137 23762.575267 22517.944529 24771.814228 22906.641357 26769.731294 24775.892946 25165.588216 23661.538898 23923.581033 22868.858991 21516.640621 21930.617847 20033.584469 19892.124058 26407.155825 23513.842450 23971.011576 22164.615527 23978.690902 23859.049298 21032.561529 20948.779489 21654.091490 21562.412117 20333.770022 20233.991621 20966.505903 20973.776609 17172.514200 18351.414088 20530.437948 20499.363913 24253.683476 22415.905174 23897.292347 22493.430287 23092.789154 23200.604302 21354.113340 21281.518430 21520.995972 21654.297060 20827.554587 19959.701656 21931.503453 20609.000020 20399.363558 20201.092017 19729.022990 20563.492186 19731.813489 19412.782895 21121.588011 21041.892850 20729.454049 20216.315007 20467.565183 20056.114673 19352.387557 18653.359842 21008.154181 22346.528553 16051.353801 17045.016867 21428.350416 21520.298930 20673.058086 21528.416706 18119.204829 17829.658130 17485.618120 18332.417154 16506.848498 17292.096440 19660.368829 19880.432984 18451.585143 18019.988987 19431.297974 19034.889937 22257.144167 20510.585870 18961.621027 18011.641496 19617.484271 19017.071104 19267.952840 17915.905901 19424.807789 18890.272556 18652.866894 18738.853783 18439.071941 17994.824447 19261.569243 19329.379574 16667.079312 17030.416660 19111.005477 19300.220457 19292.466998 18890.711387 19900.013240 19257.010706 19653.155331 19561.121214 18952.584156 19262.253825 19874.606400 19661.249360 19540.144113 18713.193491 21446.296358 20396.946924 22385.125784 20924.459572 20134.172322 19912.161232 18970.973206 19216.438407 19828.345004 19859.706683 20321.017209 18998.843702 20384.929996 19336.795489 20276.253394 19550.108375 18557.040354 18084.958653 18396.327553 18376.172652 19026.082816 18367.099617 21847.856311 19279.482684 23486.157011 20497.427108 21113.815145 18661.890474 19425.721705 18077.148384 17344.264921 17398.093616 18525.578411 18735.375815 19860.825439 19908.152986 23331.472355 22111.825522 19795.914107 17784.232130 16383.430755 14636.903874 13052.484203 11033.307130 9192.272304 8623.127592 7380.224199 5379.453982 3689.515197 1562.014280 -1473.040455 -3732.001640 -4433.939172 -4849.269242 -5230.362082 -5532.467422 -5739.452511 -5855.441029 -5890.477764 -5856.733043 -5766.419336 -5630.668970 -5459.120096 -5259.920478 -5039.908504 -4804.829094 -4559.522868 -4308.073922 -4053.921962 -3799.949721 -3548.554990 -3301.713225 -3061.033658 -2827.809861 -2603.064765 -2387.589901 -2181.978778 -1986.654656 -1801.893299 -1627.841517 -1464.532478 -1311.898987 -1169.787304 -1037.982758 -916.313389 -805.216820 -709.449961 22895.124724 22374.097324 20146.189484 18235.680113 17168.656191 14774.965343 13665.101359 11473.426831 9106.816991 9302.000426 8556.717080 6218.863319 4297.159203 1601.541236 -1784.628156 -3983.320138 -4377.765598 -4806.068611 -5209.291211 -5513.426738 -5721.459765 -5839.174077 -5876.442554 -5845.069431 -5757.004549 -5623.251664 -5453.416577 -5255.664829 -5036.870151 -4802.813417 -4558.365621 -4307.634994 -4054.080519 -3800.600943 -3549.607969 -3303.089490 -3062.665930 -2829.640836 -2605.045864 -2389.679996 -2184.142965 -1988.863144 -1804.120448 -1630.065049 -1466.732741 -1314.057587 -1171.880903 -1039.946612 -917.818000 -804.322193 -694.026725 17929.524925 16012.218604 14536.992395 13809.475041 13388.600629 12042.509683 10546.731469 9677.055401 9694.653154 7445.709442 2068.761986 -42.131224 -559.101131 -729.628362 -654.624337 -509.433783 -375.517278 -287.556440 -256.812676 -281.892011 -354.051100 -460.707641 -588.184028 -723.693190 -856.488321 -978.282391 -1083.174054 -1167.328026 -1228.593605 -1266.161699 -1280.293433 -1272.113365 -1243.444564 -1196.662755 -1134.554151 -1060.170660 -976.683552 -887.241281 -794.839061 -702.207495 -611.725869 -525.363369 -444.648926 -370.668085 -304.083449 -245.173983 -193.887557 -149.899425 -112.659680 -81.347106 -54.309585 18164.449279 16179.047918 14789.664269 13813.306156 12866.261751 11431.469427 9953.556853 8462.768424 7176.844146 5288.490456 2506.604939 519.527369 -405.043602 -659.420402 -629.622704 -506.297156 -382.167633 -297.891798 -267.646125 -291.453970 -361.398009 -465.481673 -590.448776 -723.773725 -854.828130 -975.339307 -1079.361503 -1162.993235 -1224.018562 -1261.573776 -1275.876932 -1268.017828 -1239.789033 -1193.536971 -1132.018325 -1058.255268 -975.390135 -886.544702 -794.691213 -702.542143 -612.464177 -526.419596 -445.935839 -372.101718 -305.586984 -246.680740 -195.343827 -151.271885 -113.976464 -82.955685 -58.443705 -641.535309 -610.339595 -616.992321 -587.410808 -554.449228 -538.019398 -478.418219 -476.454329 -415.806722 -416.052266 -360.846161 -361.415807 -312.220079 -312.797454 -269.271895 -269.806908 -231.472664 -231.958927 -198.332279 -198.770892 -169.387922 -169.781422 -144.204201 -144.555496 -122.374516 -122.686651 -103.522018 -103.798083 -87.299956 -87.543023 -73.391460 -73.604533 -61.508852 -61.694830 -51.392575 -51.554221 -42.809836 -42.949756 -35.553031 -35.673655 -29.438026 -29.541603 -24.302364 -24.390957 -20.003436 -20.078924 -16.416670 -16.480750 -13.433767 -13.487961 -10.961005 -11.006672 -8.917642 -8.955985 -7.234422 -7.266502 -5.852192 -5.878937 -4.720638 -4.742859 -3.797139 -3.815539 -3.045735 -3.060920 -2.436203 -2.448692 -1.943239 -1.953478 -1.545738 -1.554104 -1.226162 -1.232976 -0.969990 -0.975522 -0.765243 -0.769720 -0.602072 -0.605684 -0.472411 -0.475316 -0.369674 -0.372003 -0.288502 -0.290363 -0.224551 -0.226034 -0.174309 -0.175488 -0.134950 -0.135883 -0.104201 -0.104938 -0.080246 -0.080826 -0.061636 -0.062091 -0.047217 -0.047574 -0.036078 -0.036356 -0.027494 -0.027711 -0.020899 -0.021067 -0.015844 -0.015974 -0.011981 -0.012082 -0.009037 -0.009114 -0.006799 -0.006858 -0.005101 -0.005147 -0.003818 -0.003852 -0.002848 -0.002875 -0.002118 -0.002138 -0.001567 -0.001582 -0.001151 -0.001161 -0.000832 -0.000840 -0.000582 -0.000587 -0.000376 -0.000379 -0.000190 -0.000190 0.000003 0.000005 0.000232 0.000238 0.000540 0.000551 0.000988 0.001006 0.001664 0.001694 0.002704 0.002751 0.004306 0.004379 0.006771 0.006881 0.010536 0.010701 0.016239 0.016485 0.024796 0.025154 0.037494 0.038011 0.056124 0.056858 0.083118 0.084144 0.121720 0.123130 0.176156 0.178059 0.251789 0.254308 0.355224 0.358487 0.494308 0.498431 0.677937 0.683006 0.915593 0.921620 1.216450 1.223326 1.587917 1.595343 2.033432 2.040832 2.549325 2.555744 3.120585 3.124564 3.715378 3.714827 4.278269 4.270334 4.722180 4.703126 4.919269 4.884399 4.691129 4.634777 3.798834 3.714590 1.933361 1.815355 -1.294603 -1.444373 -6.377517 -6.504265 -14.018052 -13.751499 -25.948127 -22.738537 -37.412509 -31.056475 -42.526372 -35.618461 22387.284995 21993.787081 19790.061306 23070.199930 22214.291848 17337.122481 20302.402504 21110.899687 19980.938296 17392.898201 19875.990513 22643.229198 20674.052966 16953.340110 21839.636335 15891.346431 12224.847967 16778.093108 17320.941241 16357.575716 18402.824595 16554.939641 22319.798956 19982.085330 23390.447849 21456.996329 19406.266306 21580.317420 14428.986654 18006.015835 14816.950162 6788.351645 21157.634709 20609.549536 22004.214890 21395.247729 13600.422001 19139.898681 21280.342020 17738.193696 12049.068377 17324.600833 10710.678120 21807.769693 17129.618640 9254.712502 22187.548126 22966.949432 22435.375429 19375.568096 20916.054600 19052.350981 9368.221845 15381.022538 17275.390424 18426.844513 21715.661352 22744.501781 23897.769870 22796.662750 18985.442955 22578.697880 20155.696243 17441.482777 14452.608531 22391.163265 21315.034983 20016.843497 24132.542923 22376.761908 21840.706493 20045.014208 20212.227202 17047.647540 17475.430960 18008.192079 9853.756767 21332.016968 21675.043133 20892.406001 19787.401724 25206.951740 16778.223858 14908.814513 18142.426386 19436.824188 12741.207368 13081.201885 23348.806439 22000.671004 16381.744986 21647.218726 18829.804016 14740.260509 15725.906541 18821.547344 16015.929978 10612.176853 14495.043120 21479.673232 18060.406465 15287.221291 17458.595872 11370.230738 19454.215132 11304.707275 16716.601942 17747.368446 6564.180174 11402.640287 20275.296191 17813.254155 19475.843671 5713.626128 18470.996315 11449.528473 16174.817828 7418.845068 10110.430594 8115.632774 4820.187793 19451.990158 18837.211925 10752.781218 18723.286930 7407.879617 14186.378118 9713.743572 11404.081607 12873.579306 14153.984115 11364.437265 20912.785092 17782.033423 18125.601434 15369.370120 12346.847314 15373.281828 13097.312323 8683.073214 17915.714466 18454.347379 11233.648423 18528.769530 16911.282169 18832.031717 18433.582021 17182.485658 16177.572070 15687.911100 12287.745162 16022.151914 8178.204536 9495.364751 19633.649938 18070.533425 20902.694031 18071.309023 13803.936755 18986.448889 12666.428702 12308.506399 4993.482678 8102.192788 6827.025043 20935.717791 17975.178163 19601.496431 15331.601480 13645.615673 10975.530414 11912.375808 6870.670316 2954.687278 2538.524994 2103.327166 19103.953737 18715.751500 18371.722497 19336.960667 16813.916772 15401.272539 11567.085791 12677.776611 7363.294645 959.920960 358.901010 21307.853702 14976.163036 17897.671926 13511.889847 9913.720823 5036.453638 3618.721034 5158.147733 3047.775216 1586.182523 1173.527600 20850.429070 17823.792052 17690.880378 18171.197432 14310.682809 6043.914629 10397.926967 4998.288728 7164.564904 3616.815245 2764.124561 22541.852550 17649.585130 20066.794120 15572.670349 8227.136827 7667.557343 7629.355975 5380.825538 2649.269604 2450.986856 1666.595629 19350.902074 18084.262523 19799.025076 16123.039265 9881.160571 4997.597430 4125.926661 2323.464474 1958.371211 2098.109413 2781.570424 18258.993613 17954.084887 14742.347695 12547.304057 13621.045292 3708.727383 5723.112869 2900.208884 2812.203517 2592.735944 2790.485541 23907.150787 21281.968446 19259.610475 11013.941207 12172.380845 11143.236657 2944.898655 4141.311456 2373.795354 4234.291982 1841.293460 21410.714091 19057.430973 15237.170508 12661.088470 6428.587757 8797.766942 11282.354977 9887.087129 7756.389148 3425.560586 943.758890 17649.649822 16330.594518 16179.810865 12807.402168 11886.118707 12554.714700 7440.554849 2983.867595 8604.252881 4004.537205 2017.795544 21721.742955 17842.697337 17155.165857 18832.739560 16111.192078 10148.296896 8212.633035 6442.258009 7970.827972 6092.266162 2606.161268 22032.116963 16753.919844 17051.569878 13101.447431 16470.821035 3697.854680 10181.881479 4773.748655 4214.706988 3239.082589 1704.245433 17855.019219 14290.034181 12264.659773 14640.815531 9803.989098 14090.396380 7998.054117 11948.524956 2537.380091 2202.049269 6633.676455 20082.819326 20148.750667 17333.370647 15993.951461 15105.404545 7524.421110 4874.732212 7055.559595 4913.268243 5191.070746 1356.758259 21830.055366 18453.094919 13971.395672 10530.332993 13460.106601 6139.261512 8643.114661 4592.962254 6490.874732 6512.772661 2280.723483 19313.458465 17072.464743 20471.608783 14479.241235 14418.499156 5240.452695 8416.116200 7952.190331 5645.111960 4354.668191 3724.549383 21471.734195 19767.628309 14119.035338 14740.624893 17029.296681 13042.873977 10263.714296 6759.621480 9070.515748 6889.721053 4616.019421 20491.410413 9599.500620 17435.259163 13006.738593 17054.698309 11332.111783 5386.057379 9510.109744 4079.692160 4725.669240 2378.936468 22551.851980 21563.613653 19350.103420 15814.738108 12495.515729 9168.821048 9347.184855 7903.939282 4062.779118 3129.039620 3936.015824 21564.273341 19539.638793 15752.721212 14470.753553 16628.100209 11930.013017 11592.785860 5404.775257 4154.112097 4309.285583 2502.397714 22141.257559 23217.113925 18818.856352 16489.809056 15518.277320 12404.150910 9866.195569 10643.226209 4208.398281 2118.478862 3480.492405 23469.674108 20177.838868 13286.336379 15032.036903 19895.651504 11601.867295 12760.124601 10134.688153 7240.536816 4395.518209 7974.787048 16994.282018 19841.206633 19352.867456 15895.376687 13596.691880 7446.668623 10219.655141 8225.660148 13656.433513 2623.114350 5583.981330 21095.376338 21739.313637 17733.928307 11639.348502 14826.038291 7766.033621 6952.175617 3999.767185 5814.704319 5004.650839 3496.962573 21777.125632 16326.601115 19005.589680 13615.504830 5306.230250 8303.280893 4430.813621 4136.408088 2763.530952 6783.862522 1286.262496 19896.252529 20780.267181 19243.434381 17391.850736 14515.805229 9656.557484 5933.703389 5526.344282 7853.313332 3054.813771 4128.751440 17551.893330 20180.800452 16742.417758 11444.596149 10264.962712 9277.324063 12042.837445 5969.550031 3658.591336 3557.714300 3258.729502 20632.344500 21222.377385 16393.916319 12255.457183 13021.599119 9070.958047 8473.866375 7560.605578 6886.836024 3550.255509 5745.429075 18531.343149 18221.460723 16086.058819 19063.486427 11041.310729 9062.325917 6714.593324 7566.098898 6026.515617 4506.196486 4239.836910 22254.321392 20592.966749 16092.207233 9221.010545 12424.773105 9910.209471 7794.606549 11727.252879 5804.606100 6494.499612 3205.192443 20621.402990 18803.036961 19477.489231 4985.872700 6535.371086 6740.812089 7819.302653 6569.139465 4203.009215 8355.048875 227.609794 20870.905705 15169.117606 12601.226609 18204.146093 8549.206233 12580.934473 10524.997622 4219.419979 4993.546641 10574.569134 4021.717693 22445.747960 20731.896377 15984.299675 15638.702665 11236.713488 10956.019860 5383.127192 13130.884429 6117.905911 3421.998470 2887.815572 20317.640757 20977.599610 18496.492448 13623.795597 9567.777172 13845.921568 13199.484467 4211.287718 9427.622424 3310.027120 2980.758424 19234.033926 17781.576466 19338.150440 13968.852537 14073.941655 11160.422094 13394.815177 7935.418174 10127.107658 4308.950075 1831.788083 17348.291469 15382.773553 18233.595225 14863.675970 11030.310904 13159.975092 10021.242924 11085.345989 8636.760631 7172.775252 3909.140663 21304.965135 20430.637936 16208.458133 14362.609213 15607.664767 11851.856722 12040.462239 9484.943983 5410.938116 4545.918423 3383.324187 21502.471260 20714.559168 17374.111064 16604.762016 14351.180399 13547.878305 9583.921583 8028.832611 9905.243109 8180.060199 4661.610455 19915.795879 18131.384291 16603.963908 17558.937393 15400.684534 14420.027436 9076.398695 8134.930339 4267.550257 5632.696482 3600.437327 20158.226332 20167.681138 18039.283617 16075.660793 11997.858255 7727.156636 7221.703788 9414.055976 3296.782089 3947.693278 12407.231718 18878.257889 19678.671315 18286.714703 16368.138903 11427.625498 11250.274905 8170.998068 4318.491580 4970.986016 3650.300228 3431.529825 20651.136141 18622.259448 18017.664183 12898.152436 11432.571494 10047.146062 11406.541416 6751.019377 5549.960659 5315.922104 10659.427471 18478.770802 19429.532865 15271.969758 8778.670252 15756.642149 11419.741930 10829.144175 8812.307686 9849.589482 3699.864900 4350.394673 20668.779198 17108.303051 17997.664573 17031.541024 12808.709874 13194.065417 11974.143471 15293.980109 7000.511633 3866.179345 3084.272257 20161.443363 19226.309210 18033.083710 16743.758844 14634.163778 13538.032048 11352.907655 8986.949167 7030.149611 4802.805476 4784.024910 17249.458945 17428.531805 15967.490170 16679.687620 13356.191135 12683.278412 9119.284337 5317.698821 5716.932471 4941.934364 1883.404789 19859.968533 17687.862034 18223.064410 14017.422693 16411.396415 12509.633115 7012.376158 5579.415566 7381.390715 4041.148741 3345.069961 19441.661739 17281.992594 18084.020164 16425.563518 14063.720123 13258.058895 15696.361064 6187.763512 4425.058381 3527.323383 3487.689212 20333.552811 18809.185942 19850.923608 14966.423777 15424.282571 14271.287757 9172.024080 9206.549524 4573.055017 4440.167565 4544.103457 20524.952559 17787.108024 20222.239340 17779.996695 12470.295438 15804.584700 11544.143838 8207.783805 7204.057011 6240.566729 8387.016635 19853.264656 20055.760553 19097.302667 14891.476253 12309.249917 11926.185025 10684.731667 7833.638343 6898.147332 4522.839077 3648.000281 21021.290190 18975.714220 18503.467421 17204.774843 10436.947356 14077.345759 10561.278662 7747.744112 4101.781817 3414.390491 6822.012623 19097.296741 17736.828074 16087.088565 17355.539763 12760.499868 9430.884851 7267.323856 7726.602261 5195.445377 4780.329228 3859.017048 18197.792425 19319.181634 14356.740448 14389.369344 13367.343502 9722.820837 10529.164869 7463.211313 10181.123123 4181.572814 1749.180249 18094.737494 18503.441994 19179.936653 17236.827074 15343.718800 9640.924687 8954.437909 6470.234535 4881.218914 6622.592214 10324.201560 18835.444913 18671.387953 16959.816353 15824.914280 10365.661255 12787.965985 7285.235422 11255.274168 7537.879754 7587.956057 2709.350219 18024.560529 15321.801387 17947.877074 18205.477565 13630.742073 13225.219655 10423.685019 8491.650608 7610.585870 8577.345008 6704.731532 17153.887649 18122.888934 17471.476720 15585.606518 10689.111801 12148.901775 10835.782987 6727.511218 8826.607775 5814.585843 5627.675540 17630.046276 17051.159893 15604.825227 16283.492942 15168.674952 14115.211962 9542.305549 7146.824005 5928.233757 2601.138231 4644.776244 18133.427617 17271.631788 16810.888322 15377.183418 12563.108456 12478.706914 10241.932400 8451.011751 5530.228678 5891.312668 3919.064753 14688.770635 19823.877673 14714.783660 17309.130164 13351.732738 8280.685213 13189.499985 6881.161783 7584.132255 9993.431180 5910.527953 18306.137196 16750.669536 14683.617216 15769.241767 13841.083354 12790.262717 10802.033668 7463.922218 5089.347796 5770.746273 6301.174687 15734.259019 18367.647461 14484.067416 16882.451572 13610.209946 12689.420497 8744.577659 6847.098165 6021.502257 6733.073157 6429.138621 18459.235126 16357.328200 17179.311788 14923.589687 15013.682680 14066.129760 15169.296157 9972.391737 9328.370225 7795.451874 7710.522889 16774.560042 17160.572823 15627.942343 17399.687327 12581.392164 9804.910395 10854.857557 6012.457852 9152.682757 5127.498148 7695.175534 18854.913751 17227.416618 17574.643504 15292.364862 13466.208589 11923.705562 8046.242827 12621.420549 9964.526359 3896.021942 4029.486829 18025.022864 18784.077256 16878.427959 13892.814020 15473.228145 14313.685407 11599.413182 9793.209119 10076.494516 9633.320808 12179.750815 16757.756167 16580.309480 16043.520637 15869.449237 15353.654264 13206.106550 12706.147003 9080.710664 10163.688698 8437.040027 8990.172943 17340.712942 15437.197819 17678.435045 16148.504745 15646.281381 13685.292370 10317.460709 11780.467175 7853.404540 5891.987328 2990.832981 18964.191651 15436.483444 16050.126279 17906.275122 15701.821930 11093.596801 11646.465466 9251.977078 10025.741744 7705.302912 6428.542810 19041.872614 17884.012751 13898.514569 16081.398060 13591.348113 12430.274165 10964.684121 10802.623851 5453.866574 4927.887442 7332.301434 16767.163424 17210.814649 16092.005256 15962.634940 12692.254845 14488.859079 12520.389424 8569.581260 6822.385857 10509.099894 13747.412786 19069.447075 17870.976973 15361.320608 15998.620556 13352.439311 14410.348678 10908.736489 8122.993143 9167.065002 5746.737273 1769.975349 19257.395439 16765.912759 15343.731526 14537.573069 15233.531735 15173.063225 12362.851588 12952.994558 12225.178987 8418.394988 4140.795335 18329.886047 20404.954365 14283.214339 17002.224148 13048.262975 13992.155290 12745.035302 12555.584494 6629.643235 2214.237073 6584.659993 18690.622743 16625.941736 17707.101563 17048.538835 15260.388893 12910.403789 11200.264656 12356.019838 12507.988493 9287.201399 10391.154561 17180.931953 18647.236110 14457.992577 19059.865122 11065.752383 13916.887210 11604.286496 14332.435633 10855.212130 4504.116123 11418.541182 18813.671871 18717.184263 16830.171591 16772.562551 18944.182312 11350.641825 15627.768367 14441.699316 12377.456137 7978.166142 9044.118613 18857.418461 17035.335847 15987.991438 16713.317381 17390.952397 14839.901107 11684.993774 14540.165848 9083.693179 11458.490917 6857.465692 18681.445162 16583.918978 15023.568624 14506.120271 15059.293634 14775.816169 12493.339337 13098.613384 8182.123605 8067.135354 11989.686769 17835.528929 18425.032533 18649.028403 17026.143610 14493.320901 13097.884543 13474.662053 11847.905212 9665.166656 9989.136972 10794.585622 18632.405463 17727.160715 15980.677565 13666.273743 14164.291714 13157.972757 14012.964062 8311.756636 9253.386816 10129.564345 3983.225557 18427.352466 18048.375421 17971.238723 15764.105573 15166.230085 11711.961679 11940.381374 12701.114393 10716.027302 6123.767254 12231.875276 16174.089215 12667.806554 16400.868816 16768.814207 16381.472834 13347.726969 16107.978568 5510.821097 12407.259348 9331.867762 7460.786877 16165.809029 18075.686036 19981.564955 17040.678713 13645.412871 17403.157577 13678.672313 10017.743682 11777.866743 12134.563366 8688.984857 17111.057815 17718.633071 16758.346584 14981.478410 15505.135910 12638.342642 16366.927205 17686.101623 9609.466576 10977.210672 6714.533380 18139.362770 22274.550967 22501.929852 18343.631144 14182.895511 20514.328893 17482.149105 20421.478918 21041.729730 15878.306949 14440.532082 11556.401007 6858.001319 -1399.853870 19819.440047 14283.003051 20221.592776 20161.803808 10154.571555 22320.622201 13435.655075 11819.990979 19047.714036 9182.817389 11439.406515 9721.547239 5037.007140 13865.278402 10880.740680 12873.831135 15416.711754 7605.678480 9473.580645 9629.045565 12687.771447 10311.585715 14917.558896 9554.188393 6043.756790 7725.197174 6952.069121 6834.980976 13990.031746 10433.235765 12379.850871 14321.858633 13972.308448 12035.560447 14398.113997 14331.746929 7437.548648 15992.344039 14209.517889 9271.708627 9244.335167 6848.349053 15656.886428 20455.389596 11124.109738 10582.099761 16735.711028 12823.941435 14151.293361 11366.708127 11389.741544 7212.822074 9953.387716 9167.746813 4104.098009 6654.789592 12756.135098 17283.384394 12502.408760 21300.101882 15127.286212 16986.877170 18239.117406 11166.460775 10127.041521 10586.587110 8944.690993 8733.280081 12467.184373 4436.796554 21129.641278 5905.838051 12586.786072 13086.863463 6121.682942 15923.512342 14115.217187 17071.467960 8603.752081 8772.681963 7325.158162 6694.607667 8436.999293 4104.490962 10044.797642 8548.904323 10637.190101 14732.672051 10132.962828 15143.759935 7006.249431 6399.325903 4110.121090 8480.608478 10371.173018 8832.612377 4410.335893 4116.357542 12954.742757 13411.639051 8916.408962 4626.025311 9206.868888 6384.838152 6838.824670 6589.931001 5356.903476 9579.962587 8409.839975 7839.478070 6560.698566 2572.345010 5772.838352 7717.988235 9905.948018 6916.456663 9393.808321 4479.553063 9596.645048 7602.806404 12671.252253 4154.312586 5385.774140 5550.142436 3843.523010 4283.502167 5637.413721 6711.040146 16606.675683 12019.139779 4125.922803 7635.596399 4928.178282 11043.281395 7678.904945 10505.714409 12305.201616 8359.975766 5390.875558 5044.223522 9211.489291 2432.776080 8784.707925 15616.704023 5705.592608 10210.272411 2795.493097 9910.356059 6181.196478 8527.758418 7405.266241 13965.845693 4886.919086 6549.239771 3652.306111 1086.641794 1592.255875 9844.157624 4152.474840 3632.123321 6363.920712 13680.641240 14187.104666 5487.024782 4755.817749 4851.126777 4270.973363 4682.793979 3023.346493 4967.440534 4579.582099 2246.387105 5377.745419 3386.721289 4557.490334 8111.548636 4465.222976 8661.600986 6413.605560 3226.964309 3448.928411 5207.877017 2715.711022 2951.242578 -1126.907190 -1338.871789 937.234262 777.991719 5142.788838 -60.813474 1820.097433 5139.395780 3341.497801 5288.215273 4085.775959 4969.296483
</DataArray>
<DataArray type="Float64" Name="Velocity" NumberOfComponents="3" format="ascii">