<VTKFile type="PolyData">
<PolyData>
<Piece NumberOfPoints="1945" NumberOfVerts="1945" NumberOfLines="0" NumberOfStrips="0" NumberOfPolys="0">
<PointData>
<DataArray type="Float64" Name="Pressure" format="ascii">
 9575.128865 14855.142554 14028.975714 23573.798483 16503.647043 19381.521195 20581.377913 25271.804708 21011.525446 26570.825943 21206.931262 26928.335096 19854.204998 22820.411590 16993.997324 19857.208470 17396.205275 21178.000575 17924.340653 25932.330072 17284.937068 21236.071353 19286.598585 23409.660445 20135.951414 24039.928584 20095.298549 22926.783431 22598.507549 26050.041816 24466.039613 27803.083378 22974.354700 23911.281595 24428.169081 25761.966785 24292.217683 24290.926217 23233.210724 24102.973536 23058.949860 21994.891202 29223.826287 28795.365401 30803.074345 31793.231868 25663.202172 24116.238585 24333.067267 23529.408998 26278.226695 25289.571506 28128.426206 26836.734168 27033.029565 23997.625340 28864.780320 26486.890387 28743.707240 25606.451723 29700.665304 27147.744251 26893.467086 24060.299974 27514.260622 25176.866847 29456.421865 26598.684768 31015.352878 26212.000387 30516.466389 26083.058976 32029.677739 27678.685398 33525.950684 29264.796545 29543.877206 24760.498340 26260.197520 23301.568270 30544.322886 27171.585464 29938.567955 25184.099816 28539.579189 24044.282252 27420.242385 23494.523131 29778.907359 26537.100979 25997.822197 21563.373725 26940.395759 22490.121201 29227.487839 23850.478819 30042.503635 24412.894783 30284.568993 24536.416180 30719.636832 25339.958837 27091.200962 19830.689550 25433.372102 22048.700549 31031.640218 27913.040696 31942.024491 28126.461472 27905.356814 23658.849528 33111.505706 27980.865632 34641.689268 29651.037378 28157.219920 21635.581993 32715.881499 28912.836464 32092.291817 26634.631476 31501.142774 26630.705642 30925.986303 26206.669812 33777.922300 30807.241114 34022.399370 31779.819274 34520.923741 31770.047788 34340.549758 32400.151423 35357.624465 32923.941074 36934.187104 37107.622759 34277.198842 34598.537169 33153.811415 32241.927962 36101.798298 34844.597800 30995.074113 30646.082983 31732.560917 30102.554574 31413.461332 28621.607988 33501.663692 34392.142597 29683.947445 29416.197242 31054.341590 32057.207515 30486.263554 30625.381033 29793.903947 28869.210000 30139.632059 29987.355166 30263.142829 29889.944271 29355.441862 29452.780523 28633.345170 28619.445256 26846.051103 26955.989101 27689.340417 27138.260177 28234.131425 27558.310546 28557.015048 27363.970509 29746.682302 27899.770278 27884.542730 25175.165160 27029.192385 26291.063228 25043.027780 22989.656559 25138.362333 22769.953358 24165.316709 22123.109326 21483.882022 19481.666427 19063.053316 17835.078505 17317.382917 14656.326461 17209.797190 14429.891998 15067.391490 10908.794370 16059.679511 10737.102658 19989.088459 16469.914498 17749.743923 13182.169535 13233.885874 8849.422002 13817.282984 6696.539906 20786.312424 16124.611384 17090.919599 13225.628788 11975.316241 11228.733028 8032.903397 5428.377786 6816.466410 2753.888559 -1824.214411 1059.369454 2338.269604 -3513.806640 -3742.311291 -1307.490811 1205.659815 -796.965145 -5274.745371 -5029.921067 -3831.377733 -6392.907688 -9681.863037 -9694.278421 -9089.999445 -8449.098423 -7764.678347 -7042.480720 -6307.875441 -5585.771433 -4895.254502 -4249.261268 -3655.641530 -3118.348517 -2638.439229 -2214.859724 -1845.059245 -1525.476558 -1251.927202 -1019.908932 -824.836964 -662.218741 -527.777616 -417.534617 -327.856879 -255.480339 -197.513122 -151.424887 -115.026498 -86.444358 -64.098646 -46.728534 -33.747077 26027.038753 17407.188967 20284.907334 20961.725400 13033.137910 8676.574573 9759.364357 -2340.852109 -5385.548517 2193.814389 3892.813426 -4711.136828 -4470.794900 -854.569590 905.481987 -3961.102771 -7556.458691 -4922.927900 -3117.705259 -6910.724886 -10683.682732 -9642.430582 -9015.390581 -8428.563427 -7756.230240 -7040.697097 -6311.347952 -5593.173971 -4905.280326 -4260.816700 -3667.892235 -3130.687898 -2650.439745 -2226.230200 -1855.612289 -1535.104098 -1260.581515 -1027.587390 -831.569550 -668.057899 -532.790133 -421.795308 -331.443784 -258.471180 -199.982745 -153.443417 -116.657637 -87.741202 -65.081166 -47.241966 -32.582371 10579.550949 8450.457926 5168.076231 4228.183265 2464.337059 3245.831433 2664.421553 147.063678 1392.436016 953.362427 2522.599875 3937.842436 2760.888358 1894.354091 1338.641674 1005.885634 796.423749 646.397701 525.150849 421.567942 332.913484 258.681332 198.168510 149.996477 112.352989 83.340223 61.213594 44.488337 31.955401 22.652520 15.821516 10.867387 7.324558 4.830487 3.105129 1.934584 1.157726 0.655105 0.339693 0.149252 0.040142 -0.017601 -0.044082 -0.052455 -0.051069 -0.045036 -0.037338 -0.029595 -0.022584 -0.016564 -0.011383 15508.226125 13841.426299 11342.247391 10004.800236 8692.612369 8223.127378 7389.563988 5886.121864 5652.332011 5059.504106 4634.630120 3794.958083 2785.930466 1946.632252 1383.417096 1033.862338 811.175990 653.766628 529.337102 424.710248 335.780712 261.391482 200.636265 152.134896 114.130082 84.772870 62.345430 45.371011 32.637732 23.176138 16.220244 11.168228 7.549033 4.995815 3.225114 2.020254 1.217817 0.696444 0.367532 0.167554 0.051843 -0.010368 -0.039803 -0.050073 -0.049867 -0.044536 -0.037232 -0.029692 -0.022779 -0.016859 -0.012161 -25.545212 -21.922737 -23.627903 -20.387817 -18.415628 -16.813325 -12.854056 -12.717598 -9.193139 -9.251497 -6.569982 -6.640614 -4.669690 -4.726577 -3.297238 -3.339958 -2.312373 -2.343792 -1.610665 -1.633525 -1.114314 -1.130806 -0.765749 -0.777552 -0.522715 -0.531097 -0.354462 -0.360368 -0.238794 -0.242926 -0.159830 -0.162698 -0.106291 -0.108267 -0.070238 -0.071590 -0.046122 -0.047040 -0.030098 -0.030717 -0.019520 -0.019935 -0.012583 -0.012859 -0.008063 -0.008245 -0.005136 -0.005255 -0.003252 -0.003330 -0.002047 -0.002098 -0.001281 -0.001314 -0.000798 -0.000818 -0.000494 -0.000507 -0.000304 -0.000312 -0.000186 -0.000191 -0.000113 -0.000116 -0.000069 -0.000071 -0.000041 -0.000043 -0.000025 -0.000026 -0.000015 -0.000015 -0.000009 -0.000009 -0.000005 -0.000005 -0.000003 -0.000003 -0.000002 -0.000002 -0.000001 -0.000001 -0.000001 -0.000001 -0.000000 -0.000000 -0.000000 -0.000000 -0.000000 -0.000000 -0.000000 -0.000000 -0.000000 -0.000000 -0.000000 -0.000000 -0.000000 -0.000000 -0.000000 -0.000000 -0.000000 -0.000000 -0.000000 -0.000000 -0.000000 -0.000000 -0.000000 -0.000000 -0.000000 -0.000000 -0.000000 -0.000000 -0.000000 -0.000000 -0.000000 -0.000000 -0.000000 -0.000000 -0.000000 -0.000000 -0.000000 -0.000000 -0.000000 -0.000000 -0.000000 -0.000000 -0.000000 -0.000000 -0.000000 -0.000000 -0.000000 -0.000000 -0.000000 -0.000000 -0.000000 -0.000000 -0.000000 -0.000000 -0.000000 -0.000000 -0.000000 -0.000000 -0.000000 -0.000000 -0.000000 -0.000000 -0.000000 -0.000000 -0.000000 -0.000000 -0.000000 -0.000000 -0.000000 -0.000000 -0.000000 -0.000000 -0.000000 -0.000000 -0.000000 -0.000000 -0.000000 -0.000000 -0.000000 -0.000000 -0.000000 -0.000000 -0.000000 -0.000000 -0.000000 -0.000000 -0.000001 -0.000001 -0.000001 -0.000001 -0.000002 -0.000002 -0.000005 -0.000005 -0.000008 -0.000009 -0.000015 -0.000016 -0.000028 -0.000028 -0.000049 -0.000050 -0.000084 -0.000086 -0.000144 -0.000148 -0.000243 -0.000248 -0.000402 -0.000410 -0.000655 -0.000667 -0.001048 -0.001066 -0.001650 -0.001673 -0.002555 -0.002575 -0.003911 -0.003860 -0.006070 -0.005470 -0.008179 -0.006980 -0.009128 -0.007818 22793.845368 22828.826835 32410.513156 26869.819452 18427.166318 19967.395358 19271.545438 21315.639281 20726.612366 14727.090166 16161.720010 22969.131105 18951.953280 23017.574863 20056.144932 17285.435099 13580.469971 18284.744535 19316.672792 22694.796438 23343.069178 17597.348476 23263.719918 23811.063979 21989.204387 22452.145131 22886.464524 20018.368291 18118.275580 14826.386943 14899.801472 9493.024560 19587.423100 22458.825320 22031.996354 22463.587909 20607.520590 20296.304823 23518.665887 20405.316205 9043.563948 22781.246959 18225.094728 17233.221684 21184.438964 18462.520379 24737.437721 19969.256787 20907.293078 13838.630277 19483.321520 20614.720830 15158.042724 14085.285694 15884.443745 22696.869916 20496.563697 23335.641417 20148.348731 23077.025918 21018.283539 23069.392385 16839.043133 13288.111642 10109.601194 20566.206935 20476.217835 20404.269518 23529.136383 22826.246185 18789.623128 18648.226591 17459.132383 16389.762500 15899.447573 18514.858732 11303.942508 21746.647201 23172.173805 19274.938449 21243.555612 22130.648821 17573.875293 16225.101432 17793.242341 17466.952246 15422.906788 13726.535566 27313.014263 23324.666596 22045.042477 21677.648845 22075.041901 18363.302251 24122.699074 20342.285241 16967.015103 13732.340670 14117.797642 24574.736156 24526.800935 21472.894465 20448.803181 18603.334235 23785.493221 18868.111130 20933.140966 15338.480189 10795.404256 13560.792550 24105.552582 20807.695051 24597.645471 15561.134762 23348.875210 16379.590544 20001.412789 10629.825767 17255.686522 12166.510505 12760.810093 21818.517003 22597.528002 21610.467590 21964.368306 16797.798004 17872.631432 13229.062615 17927.755520 12735.924969 17010.430407 12181.934450 26128.736882 20350.202008 23121.768329 19435.365831 20693.478552 18333.728311 20706.277234 12831.872124 18292.429717 13566.979092 10990.124313 24830.909569 25128.348997 22830.201782 23977.628494 18979.699451 18551.691015 14421.341951 16855.176254 17253.580886 8302.454229 6338.774716 24792.657471 23174.653383 25704.203888 22067.770866 21648.650134 21508.092152 15074.820075 15217.903116 9086.821128 10238.795349 4598.352901 24755.547267 25658.420147 24461.705483 17599.253158 15585.440068 12075.899996 14592.072357 9992.749179 7531.881514 -1905.903574 8832.925954 26230.115775 25864.232930 19280.103608 20963.544670 19768.224709 17077.334091 12382.730842 15241.841934 2265.230751 2831.736289 2400.461802 24769.562154 21840.633281 20450.700543 13796.329950 11063.528664 11937.483245 9428.475160 4876.307153 632.306621 1762.568611 3206.480654 23437.583353 19196.315668 21466.834921 18495.534996 14939.249981 15720.702830 9192.890578 3708.626286 6621.197381 3119.083263 3144.929892 23090.217955 21932.523206 19501.619874 17072.353048 14729.264144 12340.741742 8969.130222 7964.974755 840.699514 2296.059471 3895.609277 25174.710048 25398.841442 23923.515439 18729.795837 16340.296123 10661.297967 10704.361071 481.087966 6553.862390 4706.120256 2630.807593 24380.589435 22772.651016 18046.593049 19857.348633 14629.492656 7560.461562 6168.258235 4782.945504 8610.408018 2148.528376 863.905027 23717.977743 24190.130638 20024.432715 15124.090961 12397.334580 11165.629306 8050.632902 9497.861926 3052.139828 2346.178774 3749.193884 22695.501719 22316.511123 18674.048928 16169.094375 11296.204715 10965.980445 11440.125927 7835.821089 7425.881185 7263.882802 5148.851167 22742.499401 21241.140953 19116.881980 17499.147440 14818.222358 15571.062168 8712.889679 6985.645192 8645.634003 7179.668826 7365.620386 26077.254587 21178.539125 18110.438684 20253.673350 17783.364463 9045.695829 9926.740312 9549.254168 10603.502744 10810.507267 -1849.578412 23707.742843 19503.781709 17501.644503 15964.406161 16871.693750 11775.624887 14271.382639 9475.628534 6997.123264 2385.756973 2799.276111 24326.945064 20088.934559 18517.619792 14510.407174 15198.439420 13695.116104 10123.340087 6663.597820 7479.172692 -938.291636 10555.281101 22957.733140 23334.200374 22125.376839 19820.259727 17482.964661 12040.018005 10555.082706 11552.382266 10130.046992 4518.671850 2300.653355 25051.058963 20682.467702 18711.433859 18209.499065 11881.941701 15722.937974 13930.301145 12644.729634 10303.466981 4555.059840 7290.114782 23412.395231 21605.479891 20948.696867 21029.312197 16073.055257 12540.236520 10504.067867 8254.550729 6714.757763 5979.199263 5897.738025 24949.566988 23350.283807 20545.152213 21748.741716 15112.432017 16652.186690 11462.287612 8129.004415 7401.241128 8425.439436 -12251.987903 25346.411729 16201.105169 17991.674361 14364.892611 13959.721724 15249.581384 12206.541645 9370.238784 9215.204917 7374.968580 7613.062261 22839.701408 23628.051649 19672.905034 17698.608902 16051.757845 13709.716074 14909.352334 11686.049207 8702.803333 8010.448988 5576.773024 23715.841412 19961.967002 17657.011256 19160.540001 16434.940172 17193.307092 12513.234824 12013.518119 9530.513564 5185.033599 1742.595014 23978.791912 23632.081294 21517.018215 19525.162453 16135.343175 17491.575262 14822.390244 10668.550321 6888.896724 7171.859605 -1265.677835 22400.217312 21550.685228 20156.518167 18838.262408 14462.130107 14688.241921 15314.135335 11951.216631 11686.010739 8232.000399 12344.480876 23630.244291 21256.336434 19771.911284 21003.889973 18270.855046 17321.460957 15807.542010 10224.323746 11251.627022 7259.748521 11345.164641 22895.439418 22962.393268 20906.363869 22068.800460 18853.096763 16750.952648 11772.587050 11542.855672 13170.056912 6823.498372 -3526.161110 21161.219974 21265.307127 19115.987284 22564.499794 13415.430512 16962.266304 9344.808127 9399.839033 9214.341571 9589.779798 -304.796737 25771.281686 23408.389742 22335.287429 19191.439869 16111.631504 15345.298411 15383.577639 9859.613114 11837.368901 6708.045292 6344.337733 22482.059195 22898.231897 24913.408363 21623.822007 17097.677235 15713.524217 14467.550550 10384.430098 7740.217337 8856.639908 6522.245674 27185.666684 22188.931505 18771.224516 20684.204935 19900.882272 13121.998446 12640.183806 9252.470315 9809.088883 9134.395721 9720.347457 24930.651931 24276.215892 21901.363689 19865.855924 22431.965359 14167.191071 11228.972448 10455.497277 8166.939532 2054.598532 2777.212997 25879.885374 26212.286809 22561.128388 17957.504984 16343.645944 16625.265461 12772.636143 11344.083536 10242.340527 6844.221821 -279.997914 27215.491636 25515.174046 23779.153441 21145.971953 15298.659670 14354.315950 13339.148464 12651.306938 12006.554995 5751.391451 -4584.357435 26509.530646 20639.816011 23994.633692 20506.812904 17775.936078 15357.668345 12457.093399 5568.133464 7727.625363 10669.208543 12122.634336 24918.944215 22898.099891 24094.097135 20086.447586 18400.643739 15392.281133 14697.874321 14930.966373 7774.058859 1193.190236 -14548.994740 24326.795230 22985.697882 25272.470255 20961.366076 18572.392050 17137.518358 16013.512311 11725.705269 14031.127692 5758.687283 7124.982025 25016.502123 24965.690606 22741.640029 22492.058705 19651.751817 18036.308921 15533.558709 13347.209902 12796.227375 11344.150281 23190.571549 25469.036234 24850.333297 22828.483682 21364.353736 19492.860368 20493.033680 13448.150812 14559.763434 11276.633968 7609.288109 19245.854230 25154.499314 24979.750941 22148.466314 19493.151939 20643.065998 18290.362744 15086.834782 15904.565111 11709.526532 8220.353027 9753.697044 27809.396925 26462.445489 26547.546349 20454.109543 22697.906899 17896.851472 16031.886290 14880.280634 9287.265510 9695.629651 8829.528219 27264.360314 22609.892352 25781.400978 21492.272267 21845.889747 19344.924359 17092.507362 10968.608950 12649.113149 10501.172252 -12453.126815 27869.785203 26530.480885 25498.314779 21833.612964 19783.328342 19609.531337 17449.755457 12390.827720 13223.723494 3086.588585 26668.817642 27213.597320 26181.844224 25594.960705 22259.387423 19373.736641 17652.395228 18234.240739 14747.358101 6820.893413 6451.023478 2625.468652 30063.730692 27680.942583 26134.847490 25005.194274 21989.609639 15090.823904 19334.831768 12219.734824 7278.534069 10204.215321 23612.751681 28683.310192 28431.264861 25677.342761 22972.697940 22540.474182 15241.032069 20183.015329 12797.645282 12675.398479 8628.163133 8735.247381 29973.085069 27314.701212 25237.651688 21374.843174 24129.028820 17421.152424 19332.530748 12696.014301 11624.662242 6895.085439 13651.819103 27069.532359 27375.981121 28250.486081 20344.306123 23345.780413 18311.441316 16495.702786 12122.349515 12127.092577 9769.585836 5976.641146 27753.071860 28138.999566 28935.665361 25647.496800 21165.233363 20778.795027 13637.527438 14091.340563 12803.160013 7614.760039 5769.137479 31654.316988 26847.395729 27052.666773 25072.970419 18267.440811 23006.944922 12211.866423 16112.504537 12377.437611 6646.518928 5408.462603 29869.435297 29235.420920 26848.470377 26197.219411 18896.905286 23033.620026 13789.394093 15418.999028 10998.575510 6435.917139 10543.175506 33036.128556 29015.393749 25546.420929 25487.982445 18406.779984 20702.160610 16349.237824 11932.400516 11750.328561 7986.243076 9985.206596 28458.432757 28304.815617 27386.408113 25871.513614 22341.302916 18595.260241 19040.068785 8264.799110 13282.834752 7642.820974 12147.980417 29422.981443 29690.034864 27176.014347 23661.193655 23592.380282 16018.037387 19682.476926 7313.967166 14936.661114 6292.015262 14623.977826 33199.416393 31255.662815 28526.562029 23840.908230 23803.767423 16184.343276 20476.547142 8284.564363 14467.153909 11245.036269 11273.382432 28517.452748 28254.924120 28465.415069 23295.082163 24091.861923 16848.823346 19600.006927 10652.267458 12548.712028 13053.820858 7493.589234 28722.163814 29101.923263 28248.109417 25712.916338 23872.846835 18071.289945 17851.337813 13628.548162 9337.006255 12267.148011 9491.711149 31212.506530 28178.612350 26924.504536 25721.269125 23157.822784 19634.277857 15774.149114 16394.673273 5805.071666 13719.320673 8906.420642 31227.215400 29529.288189 26523.565396 24250.653497 22520.270096 20242.096853 14622.990583 18217.719290 3335.749725 16245.711360 16201.593522 28269.474709 29066.021693 25979.140637 26670.957199 21797.148123 21024.053332 13416.068356 18836.799160 2671.967253 18024.329564 16352.579291 28096.080500 27436.844075 25973.049830 24585.925434 21187.132828 20071.810759 13650.536937 17225.173707 3376.025681 16620.209689 14986.740386 28513.730308 28099.367993 25397.977145 23955.367258 21045.883602 19364.103029 14265.590991 15169.679793 5889.152374 11806.751050 16421.760644 30733.321912 28193.241707 25748.828276 23687.714711 20641.522804 18455.067266 14241.719996 13599.065667 7211.270479 7286.920605 16225.272958 29324.945953 28298.855099 25524.396023 24285.510002 20332.083236 18872.236061 13670.521040 12785.015845 7927.144764 4806.203026 15636.561556 27881.645329 26641.274940 24476.949448 24286.919403 19455.090848 18559.243055 13716.399774 12502.326058 8090.548939 3987.244671 16806.819589 28451.636389 27325.759848 24868.330195 25370.761040 20104.458341 18010.173272 13923.432618 12308.782520 8478.162400 3789.226863 17402.519852 27618.766436 25520.471167 24011.741206 22922.551428 20211.703037 18708.891739 14269.450857 11587.672864 9313.823597 4048.048892 18119.625273 27885.484283 28141.250340 22764.718369 23856.521033 19550.447661 16938.408986 14508.029339 11124.985271 9884.976807 3681.384050 18246.054588 27833.861591 25380.400844 24066.489582 22039.755124 19215.268616 17638.958139 13666.978408 11562.726237 9372.312317 4486.983516 16376.801342 26988.602926 27180.825521 22110.864273 23148.302776 19258.447180 17533.742098 12495.759066 11683.286197 8646.414557 5027.642622 13725.840386 26774.909098 24708.892158 22689.988409 22228.335199 18893.105035 15947.002898 13754.037272 10705.908106 8469.702507 5218.905576 10977.976324 24131.555283 24100.666389 24219.210247 19636.095737 18146.551622 16257.823711 12297.900957 10466.644058 8228.823594 4161.135975 8708.827263 24592.231207 24489.494136 24111.155648 20880.363630 19419.477140 15540.804003 13249.574002 9616.399147 8690.727920 5027.162132 7342.491927 26972.779486 23493.487528 20778.841623 20874.207302 17870.905175 15724.198662 13191.839468 10028.785686 6966.972561 6605.650414 4937.564858 22917.599137 21432.885401 21669.613281 18097.976784 17970.380650 15853.784121 14335.190807 10293.322056 7824.646291 4744.922222 5388.200986 23675.616024 22618.819738 21191.245993 20479.125906 15218.187632 14107.295513 12575.627064 9912.603077 7776.292572 6264.603270 4466.483656 25211.618852 21765.734906 20154.507227 18345.670341 18430.070935 12159.504865 12368.048839 10116.293901 6559.824157 6131.020209 3222.566879 21003.523685 20921.528481 19201.962588 16628.728914 14269.152945 13343.524895 10781.479350 8568.690642 7679.019434 3888.827457 5093.653962 21461.890347 21194.435182 18643.458007 16292.509269 16169.239184 11823.654425 11784.494776 6321.342912 6075.838405 4335.571608 4301.966730 18181.184498 16997.304471 16189.942674 16121.293651 12354.239197 12347.598468 10147.299239 7926.364271 7208.535159 3657.029589 3471.220892 18870.391603 17749.248187 17936.733530 13946.690733 13607.709829 6304.924805 8298.236387 6241.942840 4943.176229 3671.417214 4153.927776 17915.519134 14579.219269 17899.182880 14338.281549 10883.773374 10299.546616 10789.200036 7035.092322 2501.215938 4767.193160 1786.213385 15926.134106 12474.194378 13957.333038 11025.938794 10566.397599 7836.166073 6172.764110 5509.246861 4916.009123 4972.180154 1197.138933 14426.826238 15693.316570 13764.768838 14023.622695 8748.729695 9314.887190 5947.607678 2978.152159 1216.160050 1899.999316 2134.628308 11657.727710 11904.814407 9536.177404 9000.313832 10763.388635 7838.761171 2792.637853 3958.836555 2619.831140 1160.208563 2518.486752 12213.113735 13670.480214 10741.079888 13057.975619 9192.661705 7930.682935 3074.097736 4960.036558 5071.144408 -727.178038 592.778383 11549.739625 11185.070012 6559.652170 8400.501885 9110.559418 4761.416351 5504.284979 1832.673422 1532.649475 522.097703 3661.685727 8749.938142 7866.350945 8007.487757 9528.674915 5306.625063 4860.047146 5867.679558 506.054239 4546.858906 1272.016446 3041.062835 12339.471287 11798.152892 7875.297158 7763.820599 4586.561508 3207.612723 3758.669614 3256.474423 1111.348998 2744.973461 775.558935 10767.729808 19894.994189 14761.047010 17192.779180 12074.671758 16375.974369 16820.957232 9858.707621 7647.321515 1163.927223 7257.994403 3779.629253 2984.010792 -4853.631800 17211.727435 10680.791421 13409.971271 13965.024162 6797.709694 13661.668631 11416.231970 8259.412596 6003.109976 4256.956829 -207.635557 2492.140573 1905.581047 -533.437758 15928.538578 14014.627781 12278.285741 13705.822432 6870.653759 9271.611686 10905.974480 7135.340413 10747.172305 7771.913019 3913.831526 1723.125677 1213.004220 1996.997302 18746.214857 10233.794161 11271.520020 14934.340801 7737.296067 16588.745311 10609.248868 1895.784263 4834.831762 5951.161734 7281.197850 1864.313221 1531.313822 5861.354750 11311.918998 15609.719239 14338.659603 12020.730720 17990.051575 10017.814400 6966.664220 7119.083819 7683.746676 1773.327830 5477.049726 3370.322798 2958.062350 1544.203777 11897.150426 18831.530775 12445.033257 20781.607389 9843.377245 8463.397757 11180.180801 10387.745372 5276.365179 7473.648437 6408.475643 3772.642543 3853.972617 408.184565 18807.987733 9001.693608 11450.798112 10493.635352 4367.514775 5293.990938 11978.113553 10561.342423 2727.855400 1542.958943 4342.285872 6257.510715 182.281759 926.562603 11571.431541 12817.752642 7945.180487 9031.254400 8329.397603 10953.546711 9131.708331 7154.662867 4219.676384 3228.654642 5805.351603 3019.026987 2595.121902 668.161254 14264.836729 15536.893351 2360.333668 7012.227830 13383.994064 5868.122063 9287.749397 3795.824658 4348.446283 6421.636503 4782.061597 4227.136946 637.284528 369.118309 10735.197670 7710.366268 10666.634130 7580.967860 10850.747806 2951.652747 11279.896671 7109.773764 6879.950880 4526.315564 5238.191700 170.009129 4779.366170 3415.604590 7385.397949 13363.398364 12211.586548 8003.014458 6664.888664 7171.431608 10437.380479 7071.451605 6153.018318 4483.069407 3461.363882 895.723568 5366.299670 6337.827866 12123.801588 3407.320129 7657.544149 14735.019549 4785.721597 5552.741827 5337.755822 7299.020590 7833.448861 3068.929259 7403.370292 5717.083279 -718.819471 2173.936248 8830.983738 6120.253846 1621.677781 7165.926854 2731.860407 4969.529585 9027.845975 10446.006570 10697.839877 9630.219467 7534.925908 3247.921906 4909.397095 -1631.933310 1459.344276 2280.259167 1926.091304 5383.862379 7015.924228 1072.709414 3109.013978 4283.997051 3650.771721 5953.836341 4878.374947 1654.498579 -1041.650658 5258.945694 1523.825297 5784.148054 4338.159717 1969.437603 4876.923752 1099.782064 9971.994024 837.258364 1513.587932 1884.300668 2742.160411 1097.665095 3147.808017 2152.226009
</DataArray>
<DataArray type="Float64" Name="Velocity" NumberOfComponents="3" format="ascii">