<VTKFile type="PolyData">
<PolyData>
<Piece NumberOfPoints="1945" NumberOfVerts="1945" NumberOfLines="0" NumberOfStrips="0" NumberOfPolys="0">
<PointData>
<DataArray type="Float64" Name="Pressure" format="ascii">
 28582.806646 26049.194954 28698.603985 26935.388500 26330.450728 29133.487198 24981.313886 28496.405263 25733.127065 28286.674265 24807.553212 25761.380516 24373.200902 25222.755334 23825.200638 25997.759528 23091.122415 24931.834715 26660.800405 28107.458318 26422.003839 26705.940751 27560.752273 27713.433064 25115.472474 26149.129614 23229.933529 25587.523839 23119.024267 26071.776548 23738.234768 25316.579364 22219.659516 24341.047630 21676.119668 23188.405646 22329.668360 24703.052317 22168.882987 24571.181608 21333.166009 23589.129808 22835.606151 24412.043555 24724.820005 22461.835651 29351.364924 25645.500585 27467.682159 23229.124651 27472.956298 24357.944521 20910.970365 21798.963337 21786.674827 23310.003064 23581.555417 24240.149914 21520.343687 22557.601638 22114.524506 23561.657502 21810.908923 23193.679306 22586.583055 22706.838448 22146.833894 22421.366369 24060.477607 24013.050255 23217.997407 23374.591723 21556.919260 21419.596702 22177.414885 21809.668075 21200.357327 21223.600811 23907.534947 22791.985141 24352.637743 22074.045176 22547.368163 22463.820850 20318.203890 20949.585808 19633.867132 18398.531031 20852.449481 18288.923426 19201.389943 18759.079821 19766.418260 20047.793426 18877.627022 19031.233871 20736.566244 19762.666210 20431.485054 19065.257119 20457.737983 19027.841429 20110.700584 17505.583658 20229.124347 19095.027857 16370.264576 17294.780932 17555.012689 18629.832957 16488.562937 17939.744957 16992.189756 18338.173257 17324.351974 17227.629780 20078.724541 18656.169169 19703.597941 17808.001193 20820.896261 18853.957530 19524.816073 17736.741165 19653.228159 18567.138730 17916.574795 17148.806754 20260.836993 18794.922461 17740.475064 16905.756717 19983.738257 19135.197212 17283.049063 17190.659224 19245.575729 19766.857367 17298.317305 18034.245303 19711.135967 20333.295772 17386.759467 18137.083813 18526.280986 18789.361993 16720.504941 18321.204548 17588.891347 19104.442174 16548.393757 17645.845424 16919.848840 17782.211738 17021.332417 17572.828441 18871.137646 19167.223468 17676.705277 17854.325912 19493.067117 20285.756161 15653.390649 16577.945462 15260.908008 16836.575176 14775.758163 16131.986548 15103.998638 16519.867147 14428.047003 15999.734322 15289.364127 16723.487453 14137.119114 15542.454816 15070.394638 16624.199930 13835.109362 14911.260023 15721.735306 16378.113795 15111.332870 15304.823193 14188.063231 15470.554915 16167.610923 15523.837563 17837.956246 15298.414329 17049.692665 15717.311879 16519.055652 15619.125372 15219.808413 15092.412805 15081.875886 15700.983716 14788.188659 15415.653680 13691.288683 14425.419131 13732.967112 14387.898999 13535.318760 14604.188136 12470.122854 13973.621806 13476.333860 14050.074407 25448.129564 26004.861519 26008.394276 24966.792068 24072.088611 23601.397850 22271.488000 19454.588225 17289.679905 16047.193755 14775.631443 13808.555139 12329.898978 11405.899187 10478.342795 8709.939361 7211.698817 5667.875815 4241.426865 2019.241422 -1.206798 -519.691536 -213.849399 -31.488025 -118.531813 -385.624450 -759.329652 -1177.492782 -1592.127537 -1969.379167 -2288.056700 -2537.548837 -2715.469708 -2825.277439 -2874.095576 -2870.910419 -2825.223789 -2746.152081 -2641.903764 -2519.542529 -2384.943812 -2242.867237 -2097.087426 -1950.544711 -1805.492765 -1663.631644 -1526.223652 -1394.203965 -1268.363710 -1150.049196 -1045.464889 26078.602217 25723.993809 26269.641399 26148.357020 24866.606143 24403.136442 23330.947740 19764.689739 16893.248966 16807.393676 15429.681111 14004.803427 12388.208484 11982.480223 11055.521228 8866.966159 7160.104409 5328.550929 4738.451866 490.225620 -2500.456326 -986.492823 -213.847114 -74.042631 -155.092669 -409.904402 -771.600249 -1179.912045 -1587.237119 -1959.605896 -2275.521616 -2523.976445 -2702.149865 -2813.075663 -2863.505215 -2862.130766 -2818.245583 -2740.835692 -2638.041878 -2516.905001 -2383.306268 -2242.026863 -2096.869724 -1950.804531 -1806.112017 -1664.514624 -1527.286232 -1395.327943 -1269.136062 -1148.216345 -1027.027654 16343.004585 13910.507858 11401.664158 10337.017683 10284.709811 6945.473451 5091.216989 3213.319332 1069.492591 1103.974283 1206.261250 1225.029981 1235.199385 1209.683036 1142.858082 1039.275632 907.219199 755.563235 592.501217 425.115952 259.283794 99.702686 -50.030230 -187.315297 -310.430711 -418.403296 -510.876421 -587.981650 -650.219914 -698.356693 -733.334028 -756.200397 -768.057876 -770.024655 -763.210125 -748.699395 -727.544174 -700.757374 -669.309398 -634.124750 -596.078252 -555.990656 -514.623813 -472.675789 -430.776397 -389.483512 -349.280015 -310.568264 -273.641709 -238.510978 -203.807649 14771.469053 13259.459190 11328.866135 9994.606642 8897.824231 6695.683142 4754.497519 3186.902139 1979.475966 1405.775386 1249.210662 1232.891716 1231.209451 1202.396915 1135.611011 1033.319621 902.895896 752.837124 591.196527 425.014441 260.162455 101.348435 -47.813773 -184.703811 -307.576623 -415.434514 -507.896361 -585.070465 -647.436728 -695.742540 -730.915153 -753.991587 -766.065522 -768.249343 -761.648659 -747.346220 -726.392279 -699.798757 -668.535238 -633.525401 -595.643170 -555.708331 -514.481768 -472.660668 -430.874183 -389.680083 -349.563322 -310.940126 -274.188292 -239.824114 -209.649978 -969.785674 -934.775535 -940.268475 -906.607114 -865.451025 -846.286441 -772.335084 -769.862909 -692.799704 -692.924622 -620.622654 -621.158543 -554.627679 -555.204919 -494.366960 -494.923883 -439.504788 -440.030488 -389.716346 -390.208748 -344.675724 -345.134585 -304.057629 -304.483319 -267.540751 -267.933997 -234.810856 -235.172653 -205.563360 -205.894913 -179.505384 -179.808058 -156.357343 -156.632622 -135.854124 -136.103574 -117.745892 -117.971127 -101.798576 -102.001234 -87.794081 -87.975797 -75.530256 -75.692642 -64.820659 -64.965286 -55.494160 -55.622547 -47.394403 -47.508004 -40.379167 -40.479364 -34.319645 -34.407740 -29.099660 -29.176874 -24.614858 -24.682326 -20.771870 -20.830643 -17.487481 -17.538526 -14.687803 -14.732004 -12.307472 -12.345634 -10.288872 -10.321724 -8.581397 -8.609597 -7.140752 -7.164890 -5.928297 -5.948899 -4.910439 -4.927974 -4.058067 -4.072951 -3.346038 -3.358637 -2.752704 -2.763340 -2.259482 -2.268436 -1.850474 -1.857993 -1.512118 -1.518414 -1.232877 -1.238136 -1.002972 -1.007353 -0.814130 -0.817770 -0.659379 -0.662396 -0.532857 -0.535350 -0.429645 -0.431700 -0.345633 -0.347322 -0.277388 -0.278773 -0.222054 -0.223186 -0.177255 -0.178175 -0.141016 -0.141762 -0.111698 -0.112298 -0.087935 -0.088414 -0.068585 -0.068962 -0.052686 -0.052976 -0.039415 -0.039630 -0.028057 -0.028206 -0.017975 -0.018065 -0.008585 -0.008619 0.000665 0.000686 0.010316 0.010391 0.020904 0.021032 0.032965 0.033148 0.047037 0.047273 0.063635 0.063920 0.083221 0.083547 0.106146 0.106497 0.132566 0.132915 0.162316 0.162622 0.194740 0.194941 0.228466 0.228471 0.261101 0.260786 0.288854 0.288052 0.306063 0.304551 0.304608 0.302097 0.273215 0.269341 0.196643 0.190949 0.054734 0.046664 -0.178637 -0.189756 -0.536730 -0.551690 -1.061177 -1.080898 -1.803263 -1.828797 -2.825208 -2.857729 -4.201364 -4.242163 -6.019280 -6.069738 -8.380512 -8.442076 -11.401106 -11.475243 -15.211617 -15.299763 -19.956567 -20.060067 -25.793227 -25.913255 -32.889619 -33.027097 -41.421656 -41.577152 -51.569385 -51.742970 -63.512395 -63.703228 -77.424987 -77.629289 -93.474583 -93.673823 -111.844777 -111.933409 -132.902553 -132.264697 -158.414127 -153.078017 -179.427463 -169.949809 -188.127644 -178.309670 26869.494305 29319.262777 23917.321601 27769.395791 24908.467271 22900.184105 26326.585170 26538.327351 24004.344379 21706.119632 24283.996277 31681.967529 26328.195401 23504.003767 29284.708073 19006.658354 13245.215651 19814.844098 24354.683461 20512.257491 24658.278968 19658.255769 26471.044019 26415.821568 29089.964709 26525.458208 26230.375899 29608.775671 21445.413499 24773.725841 20745.883485 7552.325429 25052.317472 30246.809585 29687.259547 28968.942821 15377.407169 26000.798300 26008.419502 22453.800456 13673.507199 25644.923607 17932.379210 28744.671627 19677.977845 12978.286875 28791.150814 26652.245443 27921.818969 24190.688491 25867.358307 21170.941927 13505.588926 20356.315731 23591.249718 25167.344561 26809.441178 28666.299474 27460.814736 26306.850460 23674.652488 26156.544976 25870.626500 23494.832305 23218.771809 27701.699633 26643.572234 26448.842426 27224.699343 29121.263828 27958.669908 28120.027959 25804.925491 25932.920112 25125.570284 22133.368265 14236.163689 26408.320568 30751.843593 26019.381010 23788.912922 26388.110022 24907.657280 20409.583545 26219.541928 28652.335279 17136.569458 18370.345004 25352.443118 24238.282048 23275.342425 30866.337727 25212.602155 22042.146916 22929.396775 29554.734530 25114.973717 12979.392485 21605.054577 25244.832904 24438.186585 24196.571443 26447.899940 17037.811442 26188.815417 18154.105586 24608.320765 24895.317962 7301.420369 20008.568630 24643.984973 24539.065834 24576.493585 10729.413301 29958.889560 17961.522881 22927.179998 10089.083562 15301.376083 9017.590273 7932.018375 26264.722131 29464.062889 13619.717570 26478.256200 10281.605795 21239.361757 14481.359117 16647.716794 19322.839405 17941.703757 16005.629965 23480.749953 25173.704324 23213.966211 22860.442955 16759.414703 20526.828870 19556.912799 13011.971518 20790.525248 23066.768900 16555.042002 24262.736476 22623.993305 21453.313215 25039.259348 22206.042623 21512.516937 18984.405171 16332.113117 20996.853687 10840.966289 15880.241972 23262.608957 22771.974185 23013.182722 27081.535149 20722.558692 19559.910948 16706.708569 18399.766868 10238.915786 11041.684931 13436.085163 23889.878834 22294.347992 20509.601479 18123.398291 15642.554271 16127.186924 18710.668585 13385.285904 5889.905006 8212.036174 3961.703135 21583.412774 25624.252961 23434.568056 19842.418661 21908.693816 20949.174632 16582.626834 19985.942754 13905.421369 4622.099662 4784.142193 23537.726577 22600.682418 21153.884938 20243.675384 13567.990416 5961.407186 9309.299722 9727.049622 6133.134105 2554.596072 6727.414207 22830.522786 21200.053695 22635.246112 22688.556518 21429.956183 9265.673838 16462.723468 9064.039197 9785.829110 7354.801685 3817.934875 23174.291745 24045.066407 21979.355235 22103.719955 12492.623464 12448.711201 11113.566202 9318.593437 3284.262144 3830.249681 4733.792662 23358.124336 22215.407538 24911.320335 22672.415414 13931.112253 8028.063817 5224.309539 5759.564664 8040.015879 3621.072839 6091.552584 20850.112937 21478.169972 20391.499499 17741.104942 15475.986308 9159.574297 9260.694197 4666.206282 8217.954314 5759.324650 3896.024524 22620.131686 23435.018951 19826.952691 14753.457447 15327.569444 15256.071306 9211.912677 8881.573775 7904.436908 8338.271871 5025.983235 22719.015852 21687.151733 18999.820472 18570.170219 12884.052299 13898.459286 16497.300834 14755.324784 10915.419161 6599.029472 3414.173233 22698.348658 18748.232044 21414.673430 19151.437808 15796.736899 14512.980293 12607.067768 4044.660883 13874.602051 10103.606032 6641.840206 22947.155959 20322.147860 22230.945741 20021.870615 19469.913983 13762.588237 11650.424069 12025.002522 9976.339209 6346.483240 4490.946749 21653.121695 20235.851562 17748.448844 17716.225373 19402.624242 7285.663089 15922.801410 8024.891835 7675.029230 8653.869305 3991.137559 19325.439887 19103.486540 16394.736902 18219.274431 13365.711639 17327.371548 14252.285140 14899.377028 7996.437758 7724.548386 7132.471830 23175.120906 21414.976707 21063.014466 19443.863680 18120.509604 11483.267919 9613.465518 13114.266644 8172.830583 10215.726202 5214.292716 22445.458623 20156.063301 14454.564180 12926.667897 16873.777882 10691.911708 10888.314083 6698.090682 10450.183460 6440.079568 5022.689462 23733.143682 19835.478428 21256.171257 17000.524136 18359.092053 10099.898382 14280.862361 11423.582941 5913.947059 10323.182205 5136.704189 23040.703103 20196.319373 15380.077705 19563.751834 17269.832711 15645.679860 12503.583292 9870.920933 9470.060359 7070.069237 6249.159687 21448.843099 13500.780061 19752.095770 12853.721704 14131.516986 14540.184966 8380.008177 8950.021048 7179.040420 6020.865568 4917.694814 21333.185192 19707.475512 19741.462999 16476.998805 16922.413342 10678.757614 8181.600467 9527.477834 6155.495659 3870.116210 3340.424390 21347.427941 18961.633383 17400.231504 17666.140565 16829.675359 9900.401528 12832.640971 6226.009001 6701.134638 6668.961086 4001.285633 21637.749096 19808.371020 19746.244537 18214.888278 13587.031672 13539.695510 9769.043577 14208.782354 7102.823645 5283.626297 4912.382693 20570.303195 20257.983252 15041.238634 14213.228357 17924.211172 13882.789500 10767.689628 12410.548814 8559.304303 6369.400545 4067.852753 19725.665777 20577.341597 19115.982966 15246.452696 13215.536506 11462.111789 9906.232964 9046.374544 18509.416878 3809.915678 5451.208345 21674.231830 19491.172707 18877.509475 12481.417231 14067.779598 9583.138187 10370.385771 4842.001702 7459.165610 5129.639083 4742.680915 19889.810129 17530.702161 19214.161939 14865.587364 6768.736130 10165.591983 7638.283238 7816.880446 6122.682036 8512.000473 2642.900647 17978.397541 19123.201960 17451.213557 18134.182192 17139.593525 10905.430922 5254.636036 8594.103550 9126.815618 4731.504996 4945.009400 17269.910186 18207.342312 15686.984421 13628.560461 13372.996849 11518.476922 14018.061971 5422.800350 6507.870007 4282.649177 4896.815589 17823.378696 19537.701011 16860.776113 13140.707088 16213.264119 9572.699523 11626.755909 10180.230498 9066.634757 5343.459115 6175.403277 15060.595915 20105.029389 16002.366763 16487.450882 11397.239025 11948.654716 5197.025768 8164.903045 6719.778186 4148.511434 7526.258224 19345.993859 20965.737149 16449.684637 10295.749417 13817.015321 12416.019532 7727.124661 14092.350323 5738.075246 10106.251741 4355.254733 19405.269138 17237.824115 17647.370290 6346.390736 9904.445931 6445.391440 5628.511609 9270.280799 3464.835460 9098.527147 2585.669504 18228.676375 14011.985839 11944.141562 16053.046856 11030.955085 14185.991312 12174.370464 5549.993904 8157.740688 7509.700216 4328.149878 19079.860430 17757.491387 17279.106017 15836.537585 12384.922098 10531.223637 6774.053823 15666.428451 8243.505721 4488.464720 3812.204254 19918.034962 15891.098546 17996.645452 14470.398063 8109.858249 13655.650928 14737.050784 6837.917172 10584.145139 4390.584257 5683.128473 17692.370226 16791.617162 18264.829295 13795.343273 13139.895488 10604.130005 15200.332003 11029.337992 10288.689474 5295.733806 1777.232508 14355.850496 13209.868685 20304.565573 17567.113223 10729.443310 13749.761725 10255.804810 11262.206932 9572.251707 4685.589502 5385.083113 17755.625781 17675.509907 14713.760444 15459.849427 16414.668251 14130.941349 12686.378175 11663.203547 7844.869874 5403.070618 3743.355614 18646.371131 19976.783595 17232.850726 16891.478728 14137.058918 14097.895481 10915.757883 8114.293991 11395.860017 3775.995521 6850.937033 19182.436165 18881.915433 16596.672824 17147.889489 16345.683938 13826.653788 8841.575654 9840.362314 5930.524278 6273.192868 3269.123292 18467.092782 16345.146589 16766.655947 15537.630850 11839.937142 8475.707131 9402.186767 6700.586886 4994.570332 4120.422187 4985.593576 18509.130229 20463.452909 18302.414111 13366.254477 13065.353133 9245.581187 7524.487739 5908.712020 6462.005508 4858.731425 4608.894136 18684.471898 21058.002129 16937.677332 12492.698881 7995.919079 9556.513294 11129.592122 6018.967420 5949.943225 4658.375677 3162.160571 19692.820694 20290.169510 15712.506260 6279.357639 14535.427746 8991.922155 12322.023682 7812.238152 7962.714224 4158.901211 3285.175294 17440.309571 16120.065985 17878.097984 14231.357081 12684.866840 13267.537773 11629.370646 15710.775949 6128.999881 3663.795467 3021.741586 20201.728747 18021.068397 18353.121556 15612.064386 14688.219634 11367.347204 10547.277023 10174.737855 7102.243947 4787.151974 8224.725905 16904.358825 14645.038722 15727.825153 15627.262598 12535.487177 12448.105488 8066.641578 5250.676278 5959.264472 5759.445795 2744.749936 17971.174289 17190.605952 16370.175450 13447.563108 13960.548847 8236.594101 5548.868790 6475.486808 8736.015965 6087.969290 3150.376569 16179.630741 16474.623149 15763.335673 14007.952339 13420.867748 12605.414619 17111.136163 7274.358167 6581.415766 6149.774851 7068.578883 17719.508993 18171.320909 17198.713433 15151.186465 14695.736725 13922.248398 10706.977817 10384.748575 7405.860796 5006.810462 5877.783850 16974.631955 15576.417483 17400.825663 15637.424085 14728.719257 14057.783225 12031.782102 7308.200695 7710.571977 6699.780297 5485.849332 14941.309028 17361.774262 17192.024186 13901.433354 7760.774965 14032.972410 13026.381602 9042.112546 8040.805232 6863.187643 5287.899476 17591.714867 16117.843580 15357.692543 15057.888312 13937.676264 16326.392334 10985.755848 9770.468287 6334.399126 7442.335901 4070.182498 15910.036915 16017.006740 14858.671293 15758.847462 14880.523360 10224.052469 9766.351289 10238.496716 8038.847518 7641.281314 5732.522676 17158.189867 18532.449124 13415.710774 14203.873838 12547.266552 13118.436414 14577.296760 8100.415867 11368.560613 6755.290493 5150.490169 17505.831517 16908.259860 18191.753880 16658.100790 8480.617011 12390.085344 12604.946846 8862.667020 6508.146606 9817.606501 5406.887874 16741.486089 16264.044342 16418.477515 15332.987756 9970.006181 14634.993126 9775.659476 11913.535964 8300.723809 7525.135080 4791.281003 18836.880010 14468.032629 18727.387324 19035.305001 14728.065065 11677.966043 11863.113993 9748.905483 10055.576852 10759.349773 5208.833605 18330.925163 16172.578236 19283.842247 15928.426125 11316.905195 14639.814357 13011.204993 8488.837895 15202.146423 5134.471671 5380.806918 18048.654504 17362.604891 12163.849397 18180.622653 14578.913747 16282.653708 10706.231970 9486.155917 8087.676450 6387.236491 4491.844638 19048.203720 18901.193839 17537.496344 16954.426955 16293.274931 12580.226958 11825.227915 9927.469075 7967.777634 7647.698786 6692.040919 15840.006967 18442.022339 14556.519782 18440.869695 14081.962928 11989.454061 13099.195323 5991.049173 8992.264650 10108.612626 3212.036130 18033.585581 18556.358746 17400.067370 19822.353063 13771.153942 13570.923675 10865.692972 9535.208992 6357.083234 7970.820726 2477.523684 18877.765188 18127.585703 17942.563592 17797.634395 14933.828817 12674.545856 9705.541072 9911.267335 6535.552229 8649.481415 2819.179368 18155.609366 14818.775137 15593.778099 13799.625392 15966.477189 13238.384038 15997.410232 11659.106159 8530.662851 5782.142708 5867.829494 18364.600691 18951.938972 17542.578168 17990.166238 13140.441779 10391.039005 13158.052124 8781.043817 11542.065606 4788.337420 11025.503598 16792.765565 17756.193193 18585.492977 14058.404300 12045.928999 15200.031002 11246.961777 12566.603570 10766.345147 3651.692524 2638.761072 17445.231228 18447.382689 18089.118423 15190.227952 16527.496157 15979.592570 14774.608089 12201.000114 10308.347961 10190.904815 5177.859932 18032.368824 15349.784037 18596.688140 15285.923575 15716.013433 12469.665528 11390.059412 10014.149010 9817.699225 10918.362696 4732.957302 16229.519291 14658.314792 17876.567896 15242.938721 14150.860033 13446.237738 9963.309806 11801.114013 9316.704426 9603.719956 5572.150220 18151.154394 14360.070223 15607.667889 17883.174756 13999.310140 10757.669278 12331.187377 7939.417678 9127.332749 8607.089833 5835.305061 16560.858172 17480.405980 12608.514654 14100.893148 15661.845269 11608.519889 12528.635949 9481.721807 4638.615232 6636.041567 7507.465852 17698.275323 13303.516606 14026.403228 15542.838844 12452.361478 12231.953818 11435.511577 7958.091940 6404.105036 5314.344288 5143.150306 16701.070564 17421.794548 13543.083618 13536.258716 12027.071924 12845.966065 11131.861823 6889.656656 5571.645831 4658.210832 5790.276564 15821.289376 14413.561054 12106.511601 13326.917332 11488.355302 6688.417336 9722.114931 11907.058277 8761.929595 8569.967519 4375.790029 17054.588329 16303.765482 11578.397751 12026.983564 8734.253310 11447.896832 10792.509419 9078.633608 8044.843420 3002.701885 4622.490288 15877.925199 14054.845151 15235.966281 15855.615290 9324.335023 10413.578854 5789.525919 10248.001790 9380.718399 9420.690700 4428.289068 16024.981357 16484.490330 12414.130840 17475.806219 8603.879079 11999.905990 8980.296495 11897.549192 7943.899507 6264.280392 8755.041778 17474.335347 17498.322103 15782.797082 16945.756194 17625.583249 10550.180637 11613.953599 9757.194502 7041.845601 7620.937067 4921.644325 14657.310891 14502.584893 13615.785177 13355.528583 12620.829505 10763.991939 6310.514411 12783.969184 4964.439257 7845.169633 2860.214641 15046.086987 13737.709634 10354.857666 12177.830108 9895.649480 12961.423815 11745.127736 9954.528848 2951.106828 5146.255712 7475.348787 12659.654690 11844.774554 14316.811862 13029.985384 13003.338617 9208.972806 9118.232639 6480.844472 7189.676407 2741.468670 4382.101854 13553.710166 13825.583523 14528.032489 9345.387915 10923.496291 8459.805704 12416.625794 7599.206579 6429.684855 7500.896872 3571.737578 13459.424557 14290.714705 12634.274522 12975.198204 12168.553074 6795.907673 8085.914805 7528.605351 7682.347739 5294.585131 8713.707261 13276.575804 10331.290020 13376.861680 13966.071647 12619.026255 7187.950231 13869.592267 5887.400032 7574.291553 4748.604014 3307.108010 14699.016530 14740.661166 15558.809108 13880.344245 11666.761154 15134.354095 11320.035481 5890.091295 6780.887682 6466.375667 6637.462003 15804.503247 14844.549202 12818.204641 11608.401449 12819.795613 11430.906915 11865.754460 13761.797881 5991.051093 6570.018695 5827.940848 23337.402025 29807.005540 27705.375045 24615.957828 17348.876059 24213.502875 21786.953952 24553.274556 26042.111851 19087.515903 17366.922317 12137.525815 8814.083872 9090.455231 25410.963143 14733.538728 28548.075935 25724.568441 10876.909896 26392.248134 15540.942276 12052.670550 22050.846815 10904.562041 13485.767162 9070.811124 6112.425608 14408.178574 14126.828192 20090.775277 17371.315610 10504.783155 8992.419474 11022.569647 15816.170060 15112.054343 21263.322280 10620.125575 7112.403303 6788.107528 5790.595788 6246.934757 17933.262089 15410.829659 14866.106730 16958.525607 21899.065376 20476.117979 17505.450309 18148.342521 6860.185938 22395.678044 15418.552230 11456.615112 8722.803372 7989.873579 18503.336072 25120.481144 16088.708754 12773.660397 21651.076410 17419.056646 19510.851388 14399.159164 17527.407207 7233.163678 12229.119785 12912.266872 5689.134994 5758.136476 17396.814189 25713.051290 15013.208505 25335.343878 20819.478274 25632.219298 25733.328909 14330.558499 10588.536399 12288.320546 9968.668331 9471.123575 17717.455700 4050.306251 23977.193041 7725.291910 16706.924092 18300.817978 7271.426677 22462.477764 18312.881924 23020.360997 14478.315968 12402.198696 9845.003390 8131.529916 5605.335016 2077.578457 11809.242528 12500.716387 11561.105104 21749.439672 15851.710308 19906.824748 11389.274736 9963.227149 6169.509163 9432.799766 14759.600498 5627.335235 4763.762093 4732.033541 19749.070794 21917.206286 10496.877598 7581.897545 15795.909129 9877.229456 9622.593157 8369.861948 6678.708105 13445.741215 12407.394509 7506.654404 4712.498013 3417.868320 11813.122454 13289.224421 14151.290188 10201.274644 15542.596424 9633.687527 14647.547221 14167.898036 13476.144122 8015.612600 7765.550098 3423.441206 910.945461 9670.185990 9652.222940 11652.842546 20541.596789 19453.692235 6370.885030 9449.439478 7728.387759 20250.491031 8475.270669 14898.165463 19403.005537 11305.886074 6225.203205 4322.470319 11715.507034 5706.196169 12579.205762 22061.253249 10228.232624 16327.132183 6291.986924 13790.795347 6385.794581 9971.257241 10058.298103 23709.443178 1920.067741 4018.798006 8380.285266 5099.637205 4420.749613 12522.157902 5027.910534 3628.551236 12222.851344 19347.499532 18994.269520 8706.791392 5757.390623 7805.921742 7161.690720 3503.687937 3592.152866 10128.542924 7721.755180 5761.166042 8231.651248 1129.374615 7715.332274 13409.247338 7510.713447 13678.233132 7737.301456 5596.279164 6888.044552 5133.812514 2597.772719 5604.888724 2861.084618 6565.508400 8516.068572 12091.863560 8771.889377 2187.499901 2208.175645 2721.044788 5139.167800 2630.359114 1844.218314 2383.104172
</DataArray>
<DataArray type="Float64" Name="Velocity" NumberOfComponents="3" format="ascii">