<VTKFile type="PolyData">
<PolyData>
<Piece NumberOfPoints="1945" NumberOfVerts="1945" NumberOfLines="0" NumberOfStrips="0" NumberOfPolys="0">
<PointData>
<DataArray type="Float64" Name="Pressure" format="ascii">
 26238.150880 26388.091680 25811.252781 27317.413453 26838.307697 28217.866837 28441.355242 26115.202565 28179.749174 25095.797392 30638.490214 26308.053376 32118.433245 27469.440455 31580.400902 27815.290198 28959.890880 26952.959307 29765.660885 26674.383723 28644.209776 28135.993529 25950.560536 25331.780345 30497.893717 28391.018004 27223.394675 24121.061932 32441.079373 28251.391019 27366.261510 24224.330735 32154.946117 27009.105504 29555.304151 25030.217597 29112.730802 24913.391902 24812.360458 23089.140266 24993.307880 25690.006023 25094.197865 26763.098554 23738.691248 25358.223706 22715.464863 24053.045971 23523.935618 25324.144607 20879.976166 23302.546940 22909.822327 24184.839905 22185.903311 23356.655775 22870.147565 23877.201761 21218.887652 22284.000899 22338.572291 23503.065205 21294.438122 22341.978185 19639.986570 22287.199611 20969.720533 23527.322990 19885.224944 20023.782420 22106.217329 21869.073553 20672.601560 20563.837724 20912.377186 21436.732531 21562.078281 22450.884061 20028.711693 20608.579088 20450.106802 20649.447797 21051.442583 20257.879680 20670.922668 20859.082160 21188.175898 20790.891751 22436.133052 20351.105526 23504.435016 21339.437694 20663.230689 18657.529872 20568.520179 19583.173926 19877.909395 19855.796606 17878.607830 18060.820632 17263.553527 18153.072422 16774.708377 17610.772894 17016.581476 17723.192983 15824.115331 16963.704632 15529.231817 17235.088934 14821.195569 15593.232947 16917.162723 17756.087107 15790.720216 15671.723877 17941.451663 17392.587205 17812.285693 16108.947589 19514.283311 17051.742476 16373.089016 16440.374469 16083.071181 16815.685797 16212.397943 15657.610380 16668.212847 15584.802601 15823.640757 15265.567690 16828.755167 17277.117637 17384.584710 16977.713309 17384.038811 17090.116946 16367.166532 16140.482456 16260.135078 17051.171981 16302.266456 16622.247210 16620.923096 17019.425027 16493.445205 16926.869105 15789.086530 16857.941804 15762.546558 16655.069954 16273.506036 17636.158446 14918.547721 15590.775860 15866.675572 16779.049711 14755.033409 15820.615725 15814.155854 16023.075519 14870.718088 15581.911275 14656.843835 15721.853818 13847.858284 13987.214285 14516.212219 14761.029047 14078.594964 14409.954592 14057.693859 14539.433459 12661.028341 13444.442108 12969.473571 14350.951595 13762.596602 14388.677848 14418.868399 14825.094190 14504.936882 14190.638786 12776.556949 13275.405974 14201.339938 13573.253228 15703.530037 13594.153555 14895.747707 13842.363209 14327.238973 13853.550827 13480.047003 13538.825162 13078.559982 12036.418797 14145.650773 12761.263337 12184.636493 12883.350063 11309.343264 12685.953875 11137.397945 12114.770882 10607.600808 11658.781578 11760.631201 11746.063635 28233.979981 27917.079400 24819.552882 24118.788810 25342.411874 23137.296357 19871.353093 19320.668873 19096.131026 16881.893984 15053.991544 12929.319792 11511.750648 9448.710491 7374.741730 5761.420815 3930.039496 1168.946516 -1845.550386 -2732.006995 -2166.542280 -1505.255013 -1085.538529 -853.800279 -789.355761 -864.571681 -1044.252601 -1290.387353 -1567.162056 -1844.381201 -2099.086097 -2315.748793 -2485.547879 -2605.168618 -2675.450181 -2700.087811 -2684.507083 -2634.962351 -2557.867585 -2459.340301 -2344.924322 -2219.451441 -2087.002913 -1950.936571 -1813.952294 -1678.175936 -1545.250088 -1416.435539 -1292.794804 -1175.896415 -1072.122577 28389.060018 28256.340935 24280.028942 22610.011569 25555.231103 23393.702523 19180.241223 19214.005358 19557.119747 15411.110032 14050.249540 11663.163918 10908.771023 8229.157575 5969.155238 4505.449905 3738.987524 -78.323396 -5020.032895 -3437.450981 -2097.272533 -1530.909953 -1119.934551 -886.971035 -817.902572 -886.712018 -1059.230556 -1298.387240 -1569.062673 -1841.449979 -2092.711264 -2307.247286 -2476.049789 -2595.564000 -2666.380811 -2691.967984 -2677.560531 -2629.265439 -2553.391867 -2455.990076 -2342.567006 -2217.940199 -2086.192115 -1950.691262 -1814.152940 -1678.719043 -1546.041021 -1417.345117 -1293.399811 -1173.935934 -1053.595338 13675.788916 10455.287610 9025.958484 8303.939935 7103.847366 6190.543049 3778.568068 2772.126681 2600.239129 2214.095299 1829.097761 1555.547969 1359.010227 1211.299253 1086.413843 966.150791 840.626602 706.480664 564.553007 417.904269 270.427178 125.999292 -11.967729 -140.723112 -258.221401 -363.085060 -454.526920 -532.256642 -596.385033 -647.334023 -685.756560 -712.468433 -728.392499 -734.514709 -731.850609 -721.420584 -704.231962 -681.266157 -653.469292 -621.745037 -586.948789 -549.882657 -511.290997 -471.856467 -432.196720 -392.861803 -354.331914 -317.012333 -281.205225 -246.936683 -212.863312 11882.923234 10022.148304 8852.360873 7931.982842 6758.924345 5638.469234 4340.025664 3324.110769 2694.120408 2218.362553 1848.220572 1571.294424 1369.720979 1216.951364 1088.210884 965.629588 839.112804 704.896120 563.430562 417.482935 270.755203 127.016139 -10.375464 -138.687192 -255.872258 -360.541454 -451.891173 -529.613154 -593.800682 -644.859659 -683.429065 -710.313017 -726.424970 -732.743562 -730.278817 -720.047053 -703.052627 -680.274775 -652.657968 -621.104563 -586.468861 -549.552018 -511.097570 -471.787504 -432.239017 -393.002211 -354.559444 -317.329814 -281.699314 -248.196188 -218.631344 -996.797669 -961.916812 -967.132542 -933.538073 -892.002736 -872.818479 -798.255921 -795.760929 -717.875156 -717.983072 -644.697129 -645.220559 -577.587368 -578.155877 -516.132728 -516.683982 -460.026214 -460.548774 -408.966865 -409.458223 -362.648585 -363.108132 -320.762483 -321.190279 -283.000727 -283.397234 -249.060034 -249.426018 -218.644565 -218.981028 -191.468250 -191.776382 -167.256619 -167.537749 -145.748180 -146.003740 -126.695421 -126.926909 -109.865470 -110.074423 -95.040458 -95.228424 -82.017637 -82.186157 -70.609284 -70.759871 -60.642425 -60.776550 -51.958411 -52.077490 -44.412379 -44.517767 -37.872627 -37.965607 -32.219913 -32.301693 -27.346714 -27.418425 -23.156456 -23.219149 -19.562731 -19.617378 -16.488517 -16.536010 -13.865410 -13.906566 -11.632875 -11.668437 -9.737530 -9.768172 -8.132465 -8.158793 -6.776593 -6.799150 -5.634046 -5.653321 -4.673620 -4.690044 -3.868248 -3.882205 -3.194530 -3.206359 -2.632300 -2.642299 -2.164229 -2.172658 -1.775471 -1.782559 -1.453349 -1.459293 -1.187064 -1.192036 -0.967447 -0.971595 -0.786733 -0.790185 -0.638367 -0.641232 -0.516825 -0.519196 -0.417465 -0.419423 -0.336400 -0.338010 -0.270372 -0.271693 -0.216663 -0.217742 -0.173002 -0.173879 -0.137492 -0.138201 -0.108547 -0.109114 -0.084832 -0.085279 -0.065217 -0.065563 -0.048738 -0.048995 -0.034553 -0.034734 -0.021921 -0.022032 -0.010169 -0.010216 0.001323 0.001336 0.013138 0.013207 0.025826 0.025947 0.039897 0.040067 0.055810 0.056021 0.073933 0.074174 0.094494 0.094745 0.117493 0.117725 0.142588 0.142758 0.168939 0.168985 0.194994 0.194829 0.218221 0.217726 0.234762 0.233779 0.239014 0.237338 0.223111 0.220477 0.176310 0.172387 0.084280 0.078659 -0.071718 -0.079536 -0.315749 -0.326360 -0.678205 -0.692311 -1.196875 -1.215289 -1.918051 -1.941695 -2.897626 -2.927532 -4.202141 -4.239440 -5.909711 -5.955616 -8.110752 -8.166533 -10.908435 -10.975388 -14.418774 -14.498176 -18.770242 -18.863300 -24.102838 -24.210627 -30.566513 -30.689907 -38.318873 -38.458469 -47.522124 -47.678152 -58.339228 -58.511423 -70.929390 -71.116593 -85.443459 -85.641624 -102.022732 -102.213214 -120.822389 -120.900258 -142.178287 -141.532152 -167.810030 -162.504184 -188.789414 -179.416198 -197.447771 -187.761813 28269.107216 25176.776715 24243.546063 27606.007206 27492.086217 24118.859879 27904.567034 27357.371225 24913.854588 20199.484472 24627.012054 26834.131999 25427.595706 25441.514608 22592.549443 19111.560447 13950.704730 19910.828235 20441.773487 20883.936222 22501.637734 18572.375176 25402.631801 27350.393972 23227.006069 24933.966706 28622.190140 20396.416790 20696.970877 24069.588128 20711.090872 6905.707203 27537.044857 21786.375171 22238.035635 21088.676750 15812.092372 24285.157150 27969.753474 24044.785422 14740.757017 25105.537917 17089.937864 27309.282053 20601.255892 13770.683839 24326.431769 26119.373491 23608.626818 21207.584341 29292.661561 22284.271865 11921.075022 20421.475691 22375.569356 29076.626244 28458.915035 24560.714916 25398.502248 25537.607461 23382.473517 25299.326955 29229.686281 26220.153401 22842.556965 22622.869318 26380.555989 27371.103199 25726.043063 26631.086955 24734.099922 25807.086949 27316.567239 27382.610562 25648.376473 21547.059881 16313.779344 21125.048022 23161.782312 21629.213469 25643.533744 24984.949647 23732.441023 19501.728419 26734.999626 22262.560656 17012.122526 17820.139144 24901.773826 23527.268790 23616.497470 23971.571448 26402.791352 23622.926086 24476.523660 24024.842652 25424.925114 12584.056214 19678.603825 25181.393556 25210.098786 26525.644151 25537.920235 17907.906095 21797.341116 19319.259760 25285.858826 25359.873382 9872.577010 21225.137192 25527.714243 23612.235973 25432.419522 11561.728573 23538.206675 16807.587148 21779.033573 14274.422947 17630.128842 9425.941993 8914.357078 24555.848042 23170.395851 15371.229792 23920.307368 12490.480454 22012.497168 15612.200908 17990.678445 18796.735658 18817.360689 18425.131102 24823.240070 23650.659827 25220.622050 25167.952388 15717.167502 22144.479009 21974.465587 12699.023694 22140.976708 24409.214733 17256.788825 25326.009065 24856.189838 26936.691284 25205.374306 25671.236750 22342.296046 19343.504564 16299.346032 21675.016296 10887.749464 17402.385523 24429.385676 20722.186992 23881.163493 24341.100937 21689.383023 26478.678584 17458.011899 18605.297584 10258.472543 13097.601038 13154.150852 23088.925115 23729.830657 26659.831762 17466.500627 16910.994145 17122.828392 18544.675011 13926.126690 7951.958352 8707.338121 4727.997044 24004.456308 23824.346774 24251.271679 26127.588690 22195.257195 21502.115244 17368.557260 19053.115414 14790.999720 6380.660497 6518.783812 24492.205210 21229.371358 23134.317167 19895.832883 13721.097287 7273.291621 7489.414517 10941.829045 6775.188824 6442.030330 5413.860834 25448.974358 19225.806664 21155.971109 23078.153882 21455.295422 9243.264455 17419.797629 9009.610597 11411.218692 7083.848643 2876.964794 22393.411170 23147.489704 22554.120124 20648.717629 11473.691429 12318.389958 10948.573299 9431.522017 5676.406823 7942.256217 3640.156214 26092.637333 21987.090387 24556.081889 19277.998409 15281.785591 10209.556983 8058.286422 6533.876306 6357.594982 3965.628571 7472.064432 21516.828385 20246.164801 18430.787943 17479.853745 14997.491125 10824.916061 7892.563185 7902.572523 6548.631544 4747.060047 4679.712869 23408.949548 22773.745656 20652.021111 16384.258136 16206.509915 16657.606719 8807.340579 8107.071120 7746.676116 8646.200088 3734.231574 21204.107445 21673.457633 18116.584927 19649.006702 13002.259266 14349.581221 17587.210366 14372.294367 9181.912044 5819.107235 952.818646 21728.356172 19940.140860 19804.001162 17692.991384 16815.415668 15773.963082 12541.515959 4101.445926 13973.361650 5526.492110 5532.675672 20883.229858 18911.101722 20281.111265 20803.990159 18777.044084 13109.624724 11303.308178 10770.378895 10967.347827 8345.681670 2363.534611 21960.372159 19080.220199 19157.809782 17218.061918 18479.249688 8070.776521 15415.268926 5781.351858 9552.866654 4819.350197 3883.440610 19590.000763 19142.941540 17339.636615 16637.896956 12573.479816 18136.550186 13149.988926 13522.246467 4178.858474 5499.970270 5564.543826 22424.350630 20238.162350 20576.543360 20399.482729 15929.699694 11642.704571 8818.060287 11389.111770 8347.154913 9276.167927 8478.015649 22749.723403 20523.072889 14901.034644 12478.596507 16897.032013 11531.567321 8855.000904 8024.735382 9235.684702 5872.574026 4020.636865 22435.482169 17751.958042 21611.938230 16484.839507 18662.858309 10942.488352 11932.442209 12058.237206 7608.831803 8454.415021 6845.341546 20633.674639 18064.146242 14516.103040 18830.805151 17397.000180 15734.846159 11769.470915 9510.301757 10581.946609 6539.838617 3920.065339 20836.063607 14950.729505 17976.474334 12064.665807 15146.591487 14548.339556 8484.644366 7223.132530 4072.855544 6063.256863 5345.451203 22062.256757 20902.415081 17852.088892 13600.922801 16317.181496 10254.719908 7447.577371 8064.908060 6880.186426 5854.581302 3676.990140 20304.506481 16969.192498 16261.205812 19356.088563 16331.629341 9847.348243 11697.068180 6486.106228 3651.331048 7153.547082 4454.758564 20721.140892 21643.089096 18822.217729 16950.889262 13136.008420 11505.650856 10147.161334 13113.823741 7515.850748 4865.389995 5897.161943 19101.288591 18466.262531 14625.161968 13753.892662 16219.454647 14923.431446 10605.842593 13453.359890 9120.018067 6560.258596 2176.405910 19368.349149 19102.021072 18242.096492 14430.247669 11396.890371 9115.017955 9549.785285 9781.493228 16569.766320 4148.160573 4985.297128 19846.798564 20002.433330 17948.337655 11531.881343 13277.690422 7965.606608 8577.599874 4850.306774 8270.080597 5261.495032 3793.739333 20226.066797 15915.024197 18856.863019 14290.247946 8016.416909 7989.337735 7587.906676 7272.987273 5281.205839 7772.761142 2064.528134 20306.717980 18588.022015 16551.070836 16848.357409 14977.254139 11384.101032 7271.301980 7998.817611 9057.452028 4883.230628 5810.679725 16867.645979 17628.468841 15456.957553 11799.016620 12906.175172 11527.607677 12805.301296 5447.674298 3781.220285 4194.194692 4895.768925 16455.395101 19155.607842 15505.851211 12674.331495 16560.344063 8142.898987 9921.235326 8788.269979 7639.680033 4391.060366 6479.910949 13530.932216 19316.291074 15060.840562 14859.008999 10997.089633 11312.606935 7145.813849 7448.485381 5854.114247 4452.633423 6474.472764 18642.309170 20491.519900 16130.985902 8355.165927 12775.948637 10666.607677 7331.798190 13242.897296 5593.185329 9584.062809 2908.761893 16996.254294 16398.983480 15711.658204 5699.498209 8051.265137 7918.007620 5784.203684 9578.598115 4528.841903 8340.220205 1519.709090 16235.465171 13719.198699 10304.000028 15619.070786 10018.478789 11268.882917 12038.230863 3503.892440 7671.804967 6752.999821 5901.799221 19624.729611 16168.594954 15172.559593 15329.230038 11247.528963 9687.305264 6172.121705 14631.676700 8070.089687 3847.865496 3266.463109 16727.853639 16230.858202 17481.846206 12947.659821 7032.453623 12507.801729 13840.369261 4272.185254 10493.785648 3966.838022 4801.533709 17084.193639 16796.739323 16523.036527 13328.776250 11973.647213 10008.815591 14492.515262 11060.220635 9002.685100 4939.168169 3336.507569 14642.250296 12487.605007 18162.598707 15990.058552 9388.421659 13377.823911 9784.007889 11200.149990 7162.475461 5045.364617 5842.450243 17209.331410 17488.470208 14001.044488 15435.640704 15580.184114 12383.408437 11748.749169 11749.077191 7084.908389 5528.618540 3433.274064 17513.433974 16585.487311 18762.230937 15217.212133 13894.420199 11905.483177 11236.366978 7358.232341 10444.826620 5253.659974 6035.451433 17908.981065 18123.472660 15020.913370 15390.106638 15684.791545 13016.952617 7046.630857 10278.899220 5109.862946 5435.328706 3508.454617 17568.739560 17920.210568 18217.790568 14004.039358 10855.990936 6953.655754 9073.214601 6909.498894 5442.676626 4099.855066 3135.670852 17478.035352 17812.561494 18347.732888 12342.614480 12399.140891 8938.026283 7446.228149 5172.479889 4780.551640 3967.817030 4463.377641 16981.189317 17966.793032 14712.776862 12348.124516 7879.371538 8437.779856 10408.710325 6482.713438 6079.747731 4472.265140 2642.163796 18795.054325 18202.877901 13991.640840 6544.633618 12999.913400 8218.713537 10771.815168 6863.290573 6794.538927 4318.830190 3061.151270 16564.823646 14535.195552 15610.742369 14257.906100 10580.296472 11357.674217 9902.570054 13956.096105 5891.669866 3338.817045 3466.422758 16713.978289 16195.846886 16230.948621 14270.902423 12343.324587 9608.976938 10246.201711 8608.992308 6364.364108 4199.401084 6342.926045 14118.109062 12614.475975 14866.224388 15023.542008 11104.287335 12032.789216 7014.273551 4403.252642 6410.511947 6122.063512 1243.384223 15998.017611 15553.369041 15824.652879 12012.762234 15054.237598 7962.535684 4818.447767 6347.691458 7441.303794 5446.734397 1479.416030 15554.829820 14363.097753 14663.060474 13809.759480 11957.261432 11532.681619 14530.324750 5809.517493 4798.329656 4654.258435 5040.053107 16772.858709 15529.812647 14420.755255 13435.888051 12726.838046 11054.383023 9887.651056 9419.506210 4807.084800 5547.860738 3411.208366 15643.915151 14599.839831 15817.430435 14858.296244 13555.120099 12333.824664 10135.733402 6581.497887 7772.867867 5749.467345 3677.068576 17444.966981 14165.047511 14696.511147 13102.396531 7234.226419 10691.659152 12786.473749 7431.848193 7398.865346 4335.133951 4064.898922 15563.241239 14797.595651 14349.105382 13904.376793 10834.661691 14450.660895 9746.093701 8125.360762 3484.446542 5790.900324 2162.833114 16248.490739 14493.231504 12615.350566 16029.936104 14101.850308 8217.203327 8275.567809 10179.427857 6230.130093 7002.177875 3352.282777 15973.720761 16664.189864 10879.857328 13015.607944 12706.557139 13186.129596 12336.200995 7072.642516 10976.752068 4810.177614 4130.458892 16904.060763 15435.934319 16272.319802 15337.812395 8131.369710 10911.122763 11800.054163 5798.625406 6302.252766 7828.995790 3827.014717 16106.961138 14937.025353 13883.145965 13918.981962 9709.538661 15067.008757 8777.632189 10704.511881 6786.935929 6849.015938 4895.355158 17056.980011 14207.160016 17657.150531 16014.339821 13876.673525 10999.979586 11640.430259 8206.415333 9110.081160 8472.093902 3336.256151 15994.833782 13397.200707 16877.937488 14792.773962 11115.374708 11862.237793 11197.687678 7369.708273 11949.152586 4193.426949 3468.023464 17829.382990 14711.411942 11232.143880 15804.107934 13000.380413 14389.162756 9122.504856 7421.604353 6385.036229 3031.060619 3915.610836 16795.065966 16944.314796 13497.484150 14406.924615 13623.329514 11296.097228 9736.626915 9373.926189 6372.675758 5613.175386 3360.965937 14376.216498 16924.373330 11428.158670 16396.431900 10947.801295 10542.589933 11759.126746 3570.065332 7584.284222 9183.399850 2392.694480 17192.202121 17043.119662 15330.583315 16964.604050 12366.467017 11737.115724 10116.079126 8719.108780 4893.081562 6238.547260 763.985140 16494.746469 15809.840963 15269.497431 14064.374255 13279.960554 11109.277315 8854.307353 7240.012038 4165.259013 6526.806240 2304.612655 16111.222238 12084.674071 14351.520581 11907.796872 13563.539671 11827.925788 12674.668132 10205.970755 7385.996564 4727.695598 4238.843948 15356.854526 16015.295277 14617.863534 15635.946191 10761.630901 9017.659646 12301.628512 7033.882929 9287.979697 3624.618484 8742.694491 15756.509347 15873.862282 15817.617935 12422.264080 10615.893136 11143.527540 9654.527419 10424.580242 8938.426706 3207.953974 5230.952277 15604.465928 15560.464443 15800.415140 12984.409999 13515.582135 13084.031186 11690.934898 10258.940110 7805.036974 8594.128030 3600.186700 16702.648870 14349.091555 16169.986755 14209.047362 15435.606297 10567.543810 8445.920810 8827.930479 8985.420395 8933.260913 1682.666154 14283.700866 12394.232946 15186.697395 12952.275796 10729.273855 10579.078071 7147.769798 10461.523905 7744.623851 7913.102207 4351.066207 14854.336446 12282.700932 14181.208904 15961.153457 10667.043424 9199.945851 9935.992447 6336.706669 8088.367126 6641.901686 4958.230382 14343.415368 14208.506082 11828.954946 11655.304523 12797.638855 10685.879874 9451.228534 7659.425669 4589.238060 3963.528788 6446.881572 13593.165356 10997.902561 12560.545377 14024.095568 11508.196428 10664.205608 9050.688699 6402.563639 5015.325333 4010.113671 5253.641932 14424.472375 15169.981328 11234.821537 11252.359649 9442.443024 9497.728214 8408.611732 6542.653926 4670.513918 4605.870405 3401.160820 14702.295001 12851.505758 10626.365515 11401.511832 9185.716502 4817.078096 8751.733747 10988.631432 7719.076757 6910.521421 2151.478886 13986.620635 14375.020357 9492.903763 9990.116316 6667.149130 9491.933673 8066.305738 8106.276632 6297.525016 4229.889166 3870.336017 13641.912161 12526.356901 12578.831497 14323.467850 6915.408638 8233.859348 3950.463693 8570.660500 7520.326987 7178.879653 3270.671270 13499.399952 14610.711243 10096.475641 14994.934465 6701.867684 9816.454394 7819.728306 9803.390444 6887.654127 6531.819153 6712.594414 15166.625808 14707.907563 14169.911256 14149.397275 15378.346095 8700.936041 8935.714171 7437.833639 6342.311599 5334.676426 4451.663809 13092.138335 12273.183721 10432.758312 11170.405392 10664.144327 9323.300537 4928.410640 9110.989629 4922.737068 7346.594830 6364.597153 13661.752036 10651.825721 7806.861796 9491.693252 7267.638800 11650.518272 10252.437848 6283.555284 2281.387551 4197.847456 6352.251229 11487.610042 9556.853660 12412.350922 10418.263193 11440.851230 6518.309068 7241.130774 5707.026625 5279.659468 3240.634560 3664.290932 10904.023173 11159.154816 12771.698348 7443.662957 8900.322227 6510.713592 11554.324053 5350.597686 4770.441272 4978.805488 3465.679401 11648.316010 13024.381243 9938.821921 10017.513886 9084.691096 5198.508634 5304.621708 6300.151391 5050.691699 4441.963883 7219.337583 11014.801643 7409.943040 10654.501244 11013.750851 11390.073273 6367.474545 10317.309745 3890.301715 5191.881174 3884.233411 1946.529820 12979.185429 12297.800867 11927.296314 11381.250351 9388.127618 12317.424598 8990.577767 2612.647468 5295.892468 4364.788247 4414.518756 13621.954662 13360.238582 10834.593056 7182.107996 9986.621240 7550.453156 9956.191752 10567.682338 4125.354154 4708.998968 4311.675214 25431.360022 26859.785474 24767.362165 24539.086561 16812.263472 21622.361099 21127.759317 26977.871281 25305.785777 19648.536700 17581.408145 11299.761704 7586.174631 10736.744933 26439.202446 14788.584092 27277.200423 24251.095615 10466.071484 26487.343541 16136.089255 11930.358299 22247.877210 10693.508348 13768.910172 8686.920956 6088.511428 14930.878897 14093.869716 19758.112066 17761.650914 10101.171847 9486.146669 12079.935969 16157.308044 17594.375470 20268.882090 11240.266179 6506.100737 6192.703212 6321.103828 4693.163471 18943.835031 17714.261927 18091.512068 16917.752117 21953.138697 18728.923756 16728.461317 19756.268614 7528.754748 23039.737255 15833.511127 12781.100550 7214.831698 8202.743109 19423.517447 26683.610430 18934.178152 13300.872386 21330.411338 17491.641385 18210.503041 15111.172761 16515.368459 8434.770596 12374.491244 13923.480265 4905.125476 4664.925092 18080.599541 27041.792689 15100.569358 28099.515482 22009.076869 27399.102239 26935.950498 14212.609567 13011.948299 11821.732141 11821.315280 10624.882052 19320.774271 4653.539307 21805.113613 9632.334168 16516.333037 18972.773918 7020.590883 22590.016194 21411.947736 24702.446354 13770.507613 11959.913137 10057.600697 8865.541785 6016.108741 2941.662513 13216.570794 13676.075948 11837.077762 21650.327629 16045.702127 18239.280918 11139.125631 10633.596813 9952.461302 9074.792419 14848.440366 9826.389024 4527.450353 5501.910423 19316.619476 23110.040755 13877.983497 8731.583754 14664.750353 11429.615337 11352.067208 7708.096562 7095.637501 13809.185737 13842.549582 8918.585967 4537.375384 4471.480810 10814.879407 15066.366908 16040.067016 9934.366117 13755.125906 13030.633397 15635.961497 13804.863809 13839.513737 9134.266982 7505.807017 6364.057375 7747.167892 3320.184030 10570.215424 11383.750304 21233.716850 18452.300021 7543.332722 9756.056439 8426.147939 21235.553752 10087.946690 14087.803198 19080.203368 12762.413816 8007.702444 7706.951089 13784.580676 7755.688717 12653.167738 21578.995236 11049.590383 18346.023315 8432.349859 13724.348659 8048.041817 10749.125363 14562.351923 26462.634454 6280.133492 4085.733717 9136.373226 6236.230099 3123.756301 12659.277715 7509.030823 6165.412599 12725.452843 19298.339431 17381.896435 10515.992158 7766.213425 7202.422586 8999.603358 4370.545126 7244.303000 9761.498504 6768.304364 5821.568001 9684.872756 3929.068217 9713.177149 13987.546993 8964.261815 14162.380499 9926.546694 6714.630728 4866.884413 8903.048153 2503.860093 4809.076767 2964.620228 3003.975932 -699.365731 5978.760375 8340.799634 6956.192653 4099.666180 2657.696896 6059.249355 7148.438033 6472.004699 3385.888512
</DataArray>
<DataArray type="Float64" Name="Velocity" NumberOfComponents="3" format="ascii">