<VTKFile type="PolyData">
<PolyData>
<Piece NumberOfPoints="1945" NumberOfVerts="1945" NumberOfLines="0" NumberOfStrips="0" NumberOfPolys="0">
<PointData>
<DataArray type="Float64" Name="Pressure" format="ascii">
 25925.255028 26753.428968 31018.925742 31495.147346 29836.045333 29193.843391 27915.921049 27098.085267 30317.617405 29078.535261 30119.185468 29707.446126 25986.446025 24863.216219 26469.686286 24682.480015 27177.424655 26040.373297 23922.468755 23121.891836 21740.517944 21549.590645 22197.428454 21774.231179 23781.413558 22725.713487 22735.247313 22169.193924 22621.253134 20728.458088 23551.111113 21861.434461 22571.648635 21127.756641 21722.001306 19656.003483 21414.189808 20192.099071 21507.715322 20266.581953 20246.098961 18852.849859 20210.704089 18657.594971 19543.194625 17862.621935 20152.574961 18264.951637 20277.510568 19469.527214 19418.409099 18201.879547 20116.859694 18036.626257 20158.465657 18914.983379 18774.379069 18192.054576 18537.691726 18064.426831 18898.093207 17721.765091 20488.356039 19496.179604 20310.521511 19620.929318 19910.192627 18878.049612 20404.324793 19404.799330 20684.418071 20097.350247 20452.600256 19628.925425 20811.423616 20091.634748 20731.658711 20366.724883 20371.612151 20021.460819 20143.169378 19984.717668 20990.699760 20503.514311 20643.669512 20418.312570 20818.599334 20596.981096 20812.077698 20477.401717 20930.000937 20868.595949 20823.144415 20820.387305 20047.638883 19890.007603 19248.155684 18925.798566 18831.261658 18405.889575 19229.653192 19165.878927 18830.211213 19073.314140 18581.524619 18748.219846 17689.362922 18484.803751 17705.365899 18270.766762 19154.741804 20029.636763 18688.234282 19644.767059 17778.426394 18757.648399 18753.701623 20181.631102 19811.021898 20847.905597 19637.555764 20355.474749 20091.500297 20867.203268 21406.058197 22630.710590 21869.483549 22558.499987 21757.521580 21823.441408 21912.171703 21737.898876 21646.327416 20892.036630 21972.814789 22082.423248 22711.680414 23840.007668 21384.351836 22172.183499 21781.698537 23275.388052 22054.568543 23612.491796 22840.490194 24728.196981 23866.665432 26365.823639 25779.305587 29284.994826 27596.080384 30443.536713 29500.347302 32081.908539 29275.416815 30698.354189 30807.641470 32034.477961 32859.136747 33702.926582 35052.220317 34766.991472 36021.929060 34383.158109 35296.002899 33147.544852 35622.187195 34513.097707 34963.955430 32981.494195 34770.053281 32129.304602 33049.074814 30792.296076 32555.269510 29772.735055 33055.167532 29871.616328 31839.214316 27896.537608 31394.686313 27838.453484 33084.298445 29700.896911 31553.999972 29420.745214 29919.393206 28855.275573 30689.897376 29791.060373 30170.241308 29461.254875 30014.816471 29106.752184 29565.927447 29375.511256 29584.731145 28400.761181 32016.569911 29099.782887 33730.818238 31346.046275 34480.416342 31551.505058 38629.013599 34211.838026 39213.544895 33901.789029 40391.653051 35325.147722 24137.674727 23566.532399 22659.948389 20836.448055 18874.049532 16822.163043 16451.289664 14927.080588 7973.693217 2623.948555 6766.485413 11122.701053 7283.231085 1685.946604 -1733.973451 -2990.658733 -2980.040851 -4309.127233 -7563.233832 -8635.948188 -8350.311653 -8017.187922 -7691.127219 -7334.791758 -6951.409882 -6547.752789 -6129.643608 -5702.137600 -5270.079572 -4838.348979 -4411.839192 -3995.296589 -3593.117642 -3209.164280 -2846.627678 -2507.950221 -2194.803232 -1908.111732 -1648.114990 -1414.451398 -1206.257185 -1022.270139 -860.931318 -720.479630 -599.035877 -494.674451 -405.482660 -329.612019 -265.347823 -211.350494 -168.116727 25624.552731 24859.805232 24725.568378 21538.452911 19270.395792 15602.333018 14925.880522 16505.186751 9222.583098 -1299.121025 5654.112305 20239.784655 15796.609287 1872.969556 -1391.035642 -2569.971534 -3020.319046 -5566.857427 -8610.689204 -8758.675939 -8279.609507 -8003.982253 -7683.750191 -7329.506443 -6947.710305 -6545.338219 -6128.311365 -5701.798765 -5270.707336 -4839.925879 -4414.325120 -3998.616698 -3597.163606 -3213.802659 -2851.710870 -2513.327211 -2200.328686 -1913.652848 -1653.556067 -1419.696335 -1211.230271 -1026.915509 -865.211460 -724.373263 -602.535441 -497.783193 -408.209922 -331.957147 -267.212462 -212.007983 -162.894614 26790.000810 23484.605429 25066.120895 24098.520391 24996.114149 24688.626698 20118.309392 18214.858522 20183.676639 21675.907935 18882.987362 20409.007031 21141.911054 18976.821535 16182.779303 22756.310575 17426.007994 15629.979566 19910.438154 17616.492424 7139.533531 7426.401062 10127.667669 4682.480445 2334.267252 460.430281 323.309751 823.810951 708.349346 442.230994 272.462312 168.882548 108.504252 72.960441 51.112848 36.893932 27.124896 20.129700 14.985306 11.146240 8.263222 6.096024 4.470547 3.256439 2.354370 1.688060 1.198797 0.841418 0.581150 0.390687 0.245589 30390.918443 27562.192448 28700.329419 28086.792020 27519.213057 25541.476349 21394.581439 20157.392679 20821.169052 20981.963339 19979.088962 19887.024075 19938.277991 20055.632920 20169.798046 20870.621082 19476.295721 18518.603851 17483.419539 14348.875020 11325.404564 9870.120764 8134.353694 5484.559793 3069.887687 1649.237837 1111.526066 905.653292 681.701409 453.334864 285.068384 178.158059 114.237149 76.244502 52.960254 37.958244 27.771224 20.548428 15.273344 11.353550 8.416806 6.211609 4.558118 3.322846 2.404594 1.725848 1.227031 0.862351 0.596738 0.403877 0.267495 -139.244127 -126.257455 -130.962916 -119.077046 -109.300731 -103.128283 -84.763445 -84.161719 -66.768931 -66.960407 -52.543691 -52.816602 -41.187067 -41.429314 -32.138207 -32.338635 -24.960533 -25.123407 -19.295374 -19.426659 -14.846503 -14.951681 -11.370324 -11.454110 -8.667729 -8.734106 -6.576996 -6.629295 -4.967586 -5.008572 -3.734778 -3.766726 -2.795064 -2.819836 -2.082248 -2.101353 -1.544162 -1.558821 -1.139934 -1.151124 -0.837722 -0.846219 -0.612859 -0.619278 -0.446344 -0.451168 -0.323618 -0.327227 -0.233594 -0.236278 -0.167865 -0.169853 -0.120099 -0.121564 -0.085548 -0.086621 -0.060670 -0.061454 -0.042840 -0.043409 -0.030119 -0.030530 -0.021085 -0.021380 -0.014697 -0.014908 -0.010201 -0.010351 -0.007050 -0.007157 -0.004852 -0.004928 -0.003326 -0.003378 -0.002270 -0.002307 -0.001543 -0.001568 -0.001044 -0.001062 -0.000704 -0.000716 -0.000473 -0.000481 -0.000316 -0.000322 -0.000211 -0.000214 -0.000140 -0.000142 -0.000092 -0.000094 -0.000061 -0.000062 -0.000040 -0.000041 -0.000026 -0.000027 -0.000017 -0.000017 -0.000011 -0.000011 -0.000007 -0.000007 -0.000005 -0.000005 -0.000003 -0.000003 -0.000002 -0.000002 -0.000001 -0.000001 -0.000001 -0.000001 -0.000000 -0.000000 -0.000000 -0.000000 -0.000000 -0.000000 -0.000000 -0.000000 -0.000000 -0.000000 -0.000000 -0.000000 -0.000000 -0.000000 -0.000000 -0.000000 -0.000000 -0.000000 -0.000000 -0.000000 -0.000000 -0.000000 -0.000000 -0.000000 -0.000000 -0.000000 -0.000000 -0.000000 -0.000000 -0.000000 -0.000000 -0.000000 -0.000001 -0.000001 -0.000001 -0.000001 -0.000002 -0.000002 -0.000003 -0.000003 -0.000005 -0.000005 -0.000009 -0.000009 -0.000013 -0.000014 -0.000021 -0.000021 -0.000032 -0.000033 -0.000049 -0.000050 -0.000074 -0.000075 -0.000109 -0.000110 -0.000158 -0.000160 -0.000226 -0.000228 -0.000315 -0.000317 -0.000429 -0.000432 -0.000567 -0.000569 -0.000722 -0.000723 -0.000872 -0.000869 -0.000973 -0.000964 -0.000940 -0.000919 -0.000624 -0.000583 0.000228 0.000303 0.002026 0.002155 0.005419 0.005632 0.011412 0.011746 0.021538 0.022015 0.038165 0.038601 0.065290 0.064110 0.112957 0.098288 0.162621 0.132071 0.185808 0.151796 24247.477963 27027.755355 22539.582000 29228.233219 23126.909028 14080.980544 25290.455386 23646.704446 24044.275254 19812.347866 20888.928687 23271.963644 22668.222596 19870.840275 24994.629300 19812.239028 18828.144395 16102.715387 15758.635201 19141.330496 22280.094217 17887.024897 21514.496161 23041.538287 26266.220431 22467.120123 20488.355404 22301.626292 9252.264622 17320.221369 15197.540811 7470.186317 22885.960732 22160.780054 20467.061100 21178.936728 15274.747301 19352.068155 21183.948186 17869.950606 7805.367089 19400.423487 13278.056779 18641.197412 16641.715529 10739.308770 20964.692436 20245.833936 19634.799448 19667.050648 16167.487659 17630.382952 12479.452267 17225.962074 17244.723066 16581.190177 20898.872905 20636.846992 22223.565972 18668.877251 14819.154962 19936.274457 16444.990341 14201.207499 6843.203438 18566.799334 17559.556704 19318.553898 20022.161396 18861.124316 18069.067996 14558.188725 15678.722876 16694.049157 14526.516856 16431.211906 6873.997905 17334.854614 18960.836516 16958.441119 16961.705994 19905.417721 12763.331286 10156.383214 13920.493096 14814.666733 11581.261647 10274.199640 19031.167671 18406.120835 16340.814081 16993.254707 16614.880200 13656.957563 14811.936174 14100.513927 14103.246664 11788.178100 14598.147859 19063.436050 16137.976611 16003.210946 16844.036675 11521.430141 16646.990362 12118.088337 13653.288167 13887.601502 6832.474162 11970.008193 18111.287824 16470.603737 17106.688428 10369.885399 16642.476660 11974.610792 15811.508772 8936.456311 8905.409250 7323.624487 5723.433832 16500.139572 16654.398100 14391.312252 17827.622271 10305.187234 14672.522773 9583.716346 12056.260025 13534.269870 11167.963431 10744.841207 18387.361145 16521.680204 17260.284433 15048.498867 12810.008883 14674.347241 14795.356402 11663.799108 15142.891823 12889.534583 10306.404781 17603.412887 16285.386500 17774.280418 18154.682413 16421.855940 15869.992789 13037.576747 12570.957377 12904.195947 5344.069080 4492.477746 19201.297545 17830.838369 18543.039401 17416.347539 15819.401642 16566.565991 12457.124833 11410.000006 4745.823462 8007.321204 2344.120580 19645.301066 17356.199037 18326.119815 15091.965400 8777.799756 9450.954386 9611.541192 7939.394563 1793.539251 983.652607 1854.774659 17735.460111 18374.677507 17208.783261 18774.150332 15193.045136 15097.824505 11493.368222 14213.100744 5313.769508 1605.093204 1770.463511 20151.063828 16620.242628 16445.403443 12573.122608 9724.633270 6100.536631 5164.034571 2046.431552 1776.636611 1894.505880 1899.389291 19196.164908 16434.581274 16189.764479 14462.492694 13807.685929 7951.227275 6427.639223 4375.982513 6056.336620 5560.011261 1354.908944 19817.771693 18116.434545 17415.999509 13377.829229 10057.685271 9349.455899 4577.337422 4871.708984 2092.272275 640.052418 1047.607370 19862.076055 17464.164032 18068.715746 15907.680736 10750.496023 5277.375081 8577.462666 2306.668041 1082.345269 1775.181285 1353.753858 18313.989922 17272.220683 16650.093546 12719.819196 12449.289560 3299.252650 3900.668234 2837.169499 5806.226130 3746.176971 1424.771107 20264.899893 17908.527000 16068.810604 12094.148678 10548.120975 9553.712441 3549.737858 3614.424302 1995.821672 2303.726229 3191.378406 18036.740360 15577.666149 14582.082043 12306.732246 5781.307425 9237.824377 10369.405784 7171.849386 3288.084033 3829.775012 1855.383172 18649.531642 17082.986949 15254.822418 12423.570599 9585.015765 9788.527626 8612.929814 3119.710849 7407.747165 2623.718973 1197.610304 20021.120712 16028.200285 16823.221067 16842.563046 15427.077758 7797.838719 10277.827897 5592.613065 4935.110145 4893.583462 2427.828520 18526.271936 15391.323830 15184.152593 13390.815173 13346.027675 6991.731152 10686.043953 2963.957324 2917.204761 1469.913929 3916.995255 19418.965826 14832.402315 11424.387443 15149.514445 12429.086687 13227.628767 6929.364841 9081.555989 2462.642659 1248.075291 4234.993872 18676.539842 17637.882221 13105.418527 13527.786898 14913.156410 8999.670551 3952.013500 5895.814568 4847.037404 5388.859340 1684.598562 20045.161876 15309.488986 13803.361301 8877.301326 9683.938135 7755.778199 8327.762318 5036.096483 6405.400167 4570.144224 3662.703427 17704.268247 15614.447149 16979.473201 12908.516322 10495.171316 6937.972657 8545.565957 5135.648560 4428.012459 3698.551208 2391.197136 19080.649016 18662.219272 11286.870294 15351.072955 11897.636461 9883.980904 9507.218002 7796.895580 7536.864425 4878.476971 3383.929639 15644.307475 11257.797709 17022.317589 14084.026859 11519.735066 11466.460090 5701.713409 8258.544300 2974.688877 3964.878461 2839.445321 18071.199303 18551.009542 15161.987264 13256.638613 12842.308598 9844.750172 9408.326160 7084.805680 3818.469844 1436.350453 4195.914611 16630.045941 15775.493772 16880.002863 13827.866648 11161.910640 12083.576954 7998.739241 5680.414157 2925.043727 3620.648419 1668.610914 18596.160405 18210.902688 15248.986364 13512.319224 14597.857497 10961.135728 9093.589410 11145.104774 4291.819729 1438.845454 2201.145720 18577.912767 16886.450997 14231.088815 13603.460322 12106.969770 12716.574378 10376.323599 8403.111867 5681.922747 4185.862364 -7732.336149 16753.763944 16188.861343 14995.481501 15401.007399 13892.066677 10427.247021 11600.158663 8818.991487 8268.003674 1465.895892 2628.844699 18159.043840 17886.371805 16803.610750 15377.638461 13253.584875 8807.377591 6925.152082 5214.647349 6142.141650 4020.719475 2756.197647 17566.769331 15500.145066 15719.367490 11666.434800 7779.471184 9450.295263 5609.044856 4285.807135 2325.481278 5146.310241 -39.598462 19229.347184 18145.298485 18043.827444 16078.965831 14758.501320 9357.910919 7789.734901 4077.073243 6032.299885 1320.941299 4244.328642 17983.194138 17184.057939 17059.802008 14687.608312 12421.917556 9777.454222 11019.147304 5439.800133 6029.515717 4785.939961 3657.097108 20320.967960 19192.860477 15852.475415 14421.667237 13025.859130 10496.885499 8507.420558 8443.495519 3907.946117 4127.139116 4381.804747 18880.554247 17846.833980 18322.862553 17753.873831 13237.721515 12852.911879 7587.324950 5524.993858 4768.606527 3109.170303 -10756.235870 20154.263437 18626.410922 16745.404557 13177.285954 13271.028680 9875.320185 6742.548604 10005.255080 5675.019562 8215.806222 2513.852458 20340.886764 18776.693900 18041.549161 9135.964646 7698.389563 7386.164271 7652.284925 7534.248347 5389.154918 6060.443920 5655.609708 20433.345561 16830.374201 15897.277861 14650.524792 10510.178330 11179.201890 9296.192584 5518.957051 7508.666029 12027.631601 4210.338447 22285.796778 18744.157481 16019.329595 16123.442255 14385.325001 11765.350259 6611.353503 13262.216708 6614.677085 3023.149543 2160.732471 19865.348101 20582.339207 18459.757248 16727.322591 11087.358237 14528.842171 14913.570408 8652.268425 8495.907754 3360.830574 2015.296666 19760.503751 18349.401804 17930.817256 16803.043781 15588.959365 14591.727147 14125.119488 12152.104172 9730.236763 5538.091701 3219.685057 20079.080128 18955.682612 19510.085062 16928.070676 16462.427562 15922.075777 13215.167157 14296.221915 8933.891748 6586.382751 2615.647068 21050.165816 21636.331340 18042.968989 17869.647321 16953.091647 14672.551350 14573.434795 11260.225152 8583.418906 5378.794379 1704.916337 21179.604190 20009.192249 21701.644479 18997.961618 18449.185066 16909.919511 14377.617376 11359.831548 10718.357660 11818.484769 5741.858620 20489.274198 21690.684098 20206.752991 19014.047316 16984.937880 16509.472733 12911.002053 9485.518022 7410.948846 7230.769251 1794.912733 23343.133175 21377.111231 21360.174327 20633.870617 18695.509746 11311.197732 8631.706388 9124.697389 6856.841886 4668.943742 18102.611989 23074.287704 23389.941432 20150.391572 20119.481123 15366.230790 15169.236226 13114.844692 7598.559480 6967.743642 4455.845206 2237.625185 23388.578915 21758.593264 21106.850839 19288.830031 13811.241381 14570.422259 11702.111678 8331.085674 8078.186095 3911.310517 1600.680810 23376.605070 24365.542985 20549.920109 18620.960150 16896.926022 14689.968461 14963.033140 12222.174963 11404.267833 5973.361039 5120.615401 24906.212031 24272.541136 19519.087850 21652.138886 18200.040146 16894.607891 13737.045336 12937.956103 7946.437528 7710.284027 2310.579851 25321.472482 21710.332609 22215.460005 21684.564805 19147.960120 16428.811102 16524.370448 11193.925924 7384.631705 7246.605436 5843.877900 26804.378164 24840.829555 21808.474774 22615.969761 19539.217411 18351.867354 9721.943771 8788.031812 8834.613707 7015.516035 25369.465526 27801.600685 26201.093559 23958.430896 21430.542885 22007.903230 16870.779785 11436.151327 9068.575048 9921.488307 4505.975333 5800.522887 27215.815497 27517.261526 23920.959183 23514.628775 19852.119049 14707.936536 15080.050302 8899.505973 6119.522029 4518.791912 8527.292987 30782.879317 24635.356978 25565.819021 22030.261965 20460.983290 19435.149463 11959.194450 14033.858265 7036.871960 2763.610181 5404.144082 28207.149342 25670.476758 27875.352057 22824.959391 20544.015003 16126.537484 14880.839907 11757.064769 11002.311158 6661.871236 8292.487573 28379.434051 29049.213462 25184.875128 22692.738471 22082.321874 16398.824927 15653.522129 10046.808276 8401.404924 8629.358260 7389.779960 30279.789468 30322.289516 26103.474385 22910.157283 19448.325290 16533.659090 13089.924345 10066.971728 7232.885701 5654.201135 284.495477 31003.627010 24883.298937 26671.233459 22507.883477 18258.157988 16053.227284 12357.925270 12523.653932 6165.513595 6883.551004 4318.601486 29747.468408 30827.421044 24467.887287 23789.084401 17497.398628 15121.745493 13788.286833 11695.091802 8596.823253 6720.158743 5124.045753 33303.460274 27413.156212 25978.909144 23789.274625 20200.444926 17161.224840 14043.742970 9744.454928 6915.911504 8881.273836 8970.190862 29971.143036 29816.907621 27510.737846 25544.851354 20934.950484 17672.106778 8767.732133 11294.960943 8465.341366 8992.109593 5583.493538 33002.575986 26988.218272 22590.342499 27143.562975 21208.802722 18477.462556 12957.830478 7726.902666 8947.937593 10915.977070 7399.321364 30142.505539 29689.192645 28575.723652 22674.074388 18127.727404 15813.896780 14108.333260 9443.890469 10923.698345 9505.445307 -4162.367411 30157.352462 28500.191877 26331.974341 22379.553088 21600.733480 21428.086138 12864.171618 9225.250026 10044.114975 7408.268917 1016.011695 33039.573532 29481.183539 25819.832357 21525.913317 19713.922856 14656.372266 13745.805086 11346.917902 7466.281180 11459.802347 2889.044379 30540.928391 29534.900564 25140.953944 23295.277517 19399.149693 16893.162189 14161.719749 11898.360923 7844.123712 10942.272596 8857.666370 31254.152164 30210.687739 25603.056909 24139.992063 20201.473038 16946.048843 15422.233820 10767.028374 7658.841387 4249.446765 -1649.564980 28560.613233 28243.965100 26253.286595 24076.304022 20079.879311 17750.219659 13317.737535 10938.857227 9500.825850 5641.234958 3732.577069 29262.695233 26237.019098 26130.498119 23180.519526 21306.167332 19730.498102 16448.612237 12484.589420 13279.735914 7072.007430 5766.298360 28676.460098 29000.115258 24718.951042 22214.725093 21146.735969 18818.749923 15468.134420 12194.939663 9146.315177 11133.687059 10177.307118 28470.950373 25728.797341 25632.335964 22122.377401 22393.937250 18679.054509 13671.098703 12994.102213 10979.159128 8562.147089 -608.642263 28395.877582 28714.342583 25969.984173 24628.046541 20419.391455 17024.964969 17090.628142 15009.757956 9005.611500 11364.003217 1060.660386 29083.260897 25709.355019 24382.277942 24205.057804 20985.507287 18343.843596 18009.124069 13347.945493 13676.368597 11437.361457 3612.087832 28528.616385 27109.387704 24697.357849 23853.533458 22616.093296 20430.254713 13648.808563 14561.726792 12104.434544 9572.889045 -5157.719061 28087.451169 25538.706718 27230.343931 23246.560655 23868.072787 17573.345538 19638.379368 16960.569852 13690.075116 12461.969176 8176.184190 29704.591784 25928.557213 24239.831710 24954.512342 20098.480961 20624.594203 16398.067358 13179.408465 9429.112934 6304.055587 6935.607210 29320.874601 25793.121263 25780.225491 22723.504529 22709.358766 16817.774387 17833.612400 11393.191256 9777.663425 3147.925368 144.026486 29576.731499 27510.626991 23749.157771 23445.680569 21543.091433 20795.379636 16581.196034 15384.338024 12810.296344 4315.075104 3769.401788 29674.740692 27637.381017 27439.770785 23289.865526 23396.310461 20482.821848 16468.647650 14798.444014 13719.919850 13165.976226 5560.637094 28883.340728 28731.459461 26383.199655 24132.151242 18989.004008 17964.709570 14582.219679 16883.400217 13648.832566 8245.370245 -2739.382844 29511.806344 26913.141730 27589.965372 23499.240494 22473.933847 22487.806189 18259.140105 15200.531183 13211.419071 13744.515865 10041.037289 26446.838777 27778.958616 24252.889642 27731.076172 19944.849553 22044.698770 15546.849624 13782.447803 15005.692742 6668.257289 5245.138335 29995.144503 23206.943030 27111.559941 23689.484076 21390.419342 19028.260128 16387.144158 15912.988117 14693.368288 3992.011250 3559.092227 29619.247855 26871.664772 26703.257879 23999.582320 21315.072848 18859.288225 20055.462468 16080.124997 11883.987395 11080.883133 -14888.306721 28628.431066 22362.344775 26365.778135 20557.134074 22743.141439 20986.197627 17695.033759 16955.380934 13021.099769 9449.421294 7261.935920 28407.100155 26998.598705 25686.230459 23015.750687 22717.620504 20733.890705 17811.548658 13588.212287 13296.261868 12280.932756 17615.425015 27880.067553 28553.066069 20110.494311 19217.107277 22994.099977 18788.315082 19593.276775 11384.983560 15289.102945 10223.044744 2711.532660 23555.804720 30999.007456 25541.093924 25430.484309 19053.444478 20628.076933 17200.320525 17946.169291 15834.305059 14317.870935 9055.294519 24235.197985 23618.619367 22044.285820 24401.682473 24375.412465 16174.559471 22202.234050 16320.717775 15739.761412 9908.309565 4239.885416 26367.106087 33405.677084 28886.570841 24962.227304 19290.006525 23665.796949 19773.558563 15292.278050 14959.913619 13587.467162 2281.083189 28143.535274 28384.118590 21576.849376 25518.944328 21377.245703 20320.057484 23924.676606 23222.060588 16579.460520 14809.033596 5230.184602 14953.418694 26334.624075 25956.399835 19104.342141 11294.603591 25098.401814 20828.860178 15907.377159 19120.092905 14982.758039 11095.337813 11079.368588 2328.547629 -3684.183436 18568.800582 11796.833992 22237.498707 22719.433528 11066.147020 21165.936178 16901.585964 9392.757793 20216.174445 10481.593041 14397.593126 13679.899484 -8924.570197 -1093.395636 12766.280826 16785.644771 11559.392005 11299.502222 9060.450344 8170.172823 11725.703548 14425.803099 14260.496739 5631.202832 8124.431445 11081.752987 20916.417173 9395.181901 12918.176433 9019.317586 12471.868478 13636.364066 10999.054590 11432.504077 14687.209006 11945.395634 6929.745327 13999.047786 12249.791905 9054.529379 11061.497544 -115.958932 13127.621052 15815.826366 11326.039489 5817.100053 14573.179456 8738.282576 9806.157997 12003.784817 8219.940279 5947.757624 7595.917066 7062.778711 5730.483215 348.524823 12519.269938 11594.505804 7230.475320 17672.547474 14790.441328 10963.624751 10719.367164 6538.098104 6678.670506 9627.409677 8785.053145 4904.168712 6600.888606 11494.015542 16863.223832 5487.332136 9592.707474 8770.917209 4381.573450 7457.245729 10275.856283 10585.128302 6618.262682 2755.398528 6665.670904 2357.503026 4183.270445 -2554.042550 6664.325825 12740.775703 7789.617638 10985.892924 7593.937213 12247.429274 8593.653061 7184.045486 3151.159311 4165.687045 6090.400567 3443.151509 1776.226947 3619.632516 11513.404332 11352.675186 5666.052630 5939.779798 11180.522766 3013.225607 5667.405816 2802.773844 2538.568076 9882.307402 4562.913840 4906.566274 3879.793230 4723.716126 9012.303123 7392.892104 10285.665239 7123.202897 6903.109419 3711.103794 9625.630265 6198.161382 9023.677499 2584.083032 6100.946461 2821.219550 2864.434201 7579.445944 3806.767917 7620.661693 12681.440194 7041.770502 4548.421896 4653.204011 6556.829184 6428.553298 8842.582122 6329.904605 8120.380773 5633.348660 4378.870399 4212.379331 10463.114943 1562.383329 7660.478456 14081.966607 5108.027853 6488.896129 1571.320005 6160.238127 4629.061864 5594.769382 4265.615272 8012.797086 1806.174786 3360.535098 6456.761357 1073.250009 2088.979163 3840.308423 2130.276074 4836.100270 4661.164635 9458.372035 11228.539639 10601.164814 2595.586948 4703.776731 1924.592145 2071.939653 2160.556473 3656.313242 2147.799361 1871.643978 5634.228504 2648.498244 3053.530174 5251.810716 3486.036887 7832.681672 4107.200721 1614.649382 2476.450086 2715.429422 1422.547794 1114.718584 1785.011681 1870.628809 1245.893623 819.068782 3730.137106 1966.317795 1691.910186 2936.506111 1706.411103 2211.081638 2226.336601 4284.004932
</DataArray>
<DataArray type="Float64" Name="Velocity" NumberOfComponents="3" format="ascii">