<VTKFile type="PolyData">
<PolyData>
<Piece NumberOfPoints="1945" NumberOfVerts="1945" NumberOfLines="0" NumberOfStrips="0" NumberOfPolys="0">
<PointData>
<DataArray type="Float64" Name="Pressure" format="ascii">
 19902.608159 19446.844602 18666.279400 18608.573256 19026.561940 19391.080309 18885.126437 16967.749021 19731.609400 18579.236681 19157.451460 18643.906191 19115.635406 16871.281943 20383.855511 18526.349456 19827.895764 18885.631040 19508.478544 18284.231111 21600.408034 21149.495731 20680.042976 18969.435688 21931.051060 20396.006366 19352.852498 17957.677757 18696.443075 17815.811642 20827.142788 19697.142436 21908.548365 20690.020527 20706.949434 19835.822225 21617.732672 20287.329538 22951.686198 20648.582210 21012.420299 19704.423175 21489.265603 19708.802147 23262.081200 22124.371832 22137.087444 21337.545677 20946.983681 20703.583327 21069.360064 21342.781309 20625.922733 20240.310901 20337.250832 20291.250721 20369.240359 19849.376767 20916.000890 20324.949725 20429.037045 19993.014625 20850.711331 20128.894296 20433.090553 20431.434091 19874.253232 20202.537664 20897.350710 21299.874604 20891.892301 20418.519978 20597.035049 20393.559763 20622.056295 19227.078727 23340.709448 21138.324151 19957.881294 18678.389306 16357.527584 16714.594014 18264.838462 18195.414881 22614.415694 21161.490702 24040.440491 23084.682154 21245.969739 19478.005828 26113.872669 23442.368228 23081.959336 19900.535456 29763.955674 25976.896149 20768.410221 19617.656607 21596.712175 21885.952920 23264.054764 19971.630570 33831.928462 31573.590162 22648.577091 22892.264881 24658.424112 25041.534537 27468.908397 26663.189391 28747.505750 29564.805883 24100.606746 24999.689010 29162.648872 30105.253804 25294.163098 24937.187499 28346.974144 30115.091587 20803.184098 16778.482535 38590.878327 33301.824986 23550.278929 23838.107979 22225.150679 24077.910556 24490.370646 26205.969563 23477.333249 26334.096926 24525.309939 24283.716899 31324.093422 28429.039814 32133.380676 30407.701509 25961.547392 25083.962099 26411.763307 27854.385793 23664.805595 22882.219464 25472.897093 27762.213520 19434.455656 19988.945375 28767.936761 30658.560537 18286.180415 19816.283650 24402.804852 26988.140410 18045.433683 19031.916900 24686.062268 22103.454346 25547.124058 24605.422677 19164.415080 15872.586176 24386.208188 25077.224484 15414.384525 14072.056867 26475.867778 28745.080067 16857.341263 18842.421716 20265.040665 21237.854896 19856.484373 19139.491947 17706.090672 17266.857785 16454.598099 15591.590367 16717.905425 16988.741177 19252.152421 19346.038083 15800.064258 14856.661639 18272.870486 17711.363100 15831.010438 15081.151068 15692.484264 15246.922820 15438.022126 16876.684695 13967.916401 13141.447051 14101.019785 14573.809838 10601.498080 10649.983685 11815.032141 12236.902999 12110.162523 13105.257133 11070.211118 12919.231406 10101.072990 10685.441559 10086.158941 9447.753699 11456.546285 10219.989682 19141.356527 17437.486059 15895.480377 14202.082527 11326.755202 8793.656938 7694.513416 6305.190415 5121.931734 2452.910224 -993.711339 -1943.170663 -1645.813130 -1308.816248 -2380.372803 -6629.716910 -8013.401335 -7520.324497 -7601.029633 -7595.900809 -7489.278807 -7302.593961 -7055.891004 -6767.769650 -6453.971454 -6126.684514 -5794.698151 -5463.943420 -5138.138992 -4819.413868 -4508.850018 -4206.920175 -3913.814107 -3629.659232 -3354.649755 -3089.103053 -2833.463174 -2588.270064 -2354.110402 -2131.562525 -1921.144393 -1723.270323 -1538.219503 -1366.117165 -1206.927800 -1060.459050 -926.375606 -804.229786 -693.562045 -594.395546 -510.384242 18477.476594 15658.884600 14351.181254 13653.788764 10483.025554 7646.094464 8450.324416 5716.498725 6946.615101 4329.530930 -1955.941994 -2739.528038 -1539.272327 -1021.992397 -188.632192 -3721.260349 -7383.868360 -7343.461387 -7498.696502 -7559.353939 -7469.385031 -7289.348584 -7046.990376 -6762.278262 -6451.118085 -6125.758402 -5795.091070 -5465.174880 -5139.856654 -4821.379669 -4510.919634 -4209.020383 -3915.920978 -3631.778999 -3356.803381 -3091.314805 -2835.753011 -2590.649326 -2356.580126 -2134.113677 -1923.759347 -1725.925035 -1540.885920 -1368.765537 -1209.528597 -1062.983794 -928.793097 -806.476344 -695.353848 -594.089912 -497.755715 9130.668246 9196.737984 8116.226235 4807.201102 3962.566670 915.112015 143.430531 -1652.712676 -3669.407923 -5014.572662 -3699.610104 -4045.678148 -7031.326498 -2600.359883 7.075507 592.706829 838.293000 862.045519 726.503438 475.792586 147.833871 -223.030719 -606.304178 -976.093062 -1311.503757 -1596.651729 -1820.491797 -1976.599816 -2062.911797 -2081.367291 -2037.409677 -1939.331135 -1797.486866 -1623.429991 -1429.033729 -1225.672122 -1023.525412 -831.062077 -654.728077 -498.848380 -365.720859 -255.862558 -168.356281 -101.242752 -51.908970 -17.434676 5.127223 18.546310 25.282632 27.406082 26.440994 8858.861047 7652.494665 7546.342192 6457.439177 5440.814612 3453.460045 2415.103128 1865.390824 1303.715259 970.281572 408.920800 -437.932267 -1061.138137 -641.709836 31.200392 548.182228 795.003830 828.504007 701.657988 458.479830 137.287789 -227.513004 -605.523298 -970.938829 -1302.902922 -1585.533347 -1807.771418 -1963.164756 -2049.596225 -2068.917449 -2026.446325 -1930.317540 -1790.708713 -1618.990614 -1426.865302 -1225.561055 -1025.148403 -834.028077 -658.620970 -503.265566 -370.304008 -260.318325 -172.466499 -104.865048 -54.969831 -19.917463 3.196945 17.117017 24.299308 26.867487 26.720106 -451.669815 -424.842832 -431.672941 -406.492734 -380.466154 -366.739114 -319.371290 -317.823795 -270.541948 -270.824576 -228.836596 -229.368187 -192.924407 -193.442147 -162.060236 -162.525237 -135.637471 -136.047391 -113.111573 -113.470136 -93.988069 -94.299936 -77.819964 -78.089823 -64.206002 -64.438361 -52.788525 -52.987635 -43.250886 -43.420707 -35.314553 -35.458731 -28.736023 -28.857883 -23.303669 -23.406213 -18.834607 -18.920526 -15.171650 -15.243334 -12.180414 -12.239973 -9.746590 -9.795872 -7.773434 -7.814048 -6.179458 -6.212795 -4.896351 -4.923607 -3.867108 -3.889307 -3.044378 -3.062388 -2.388997 -2.403554 -1.868719 -1.880440 -1.457100 -1.466503 -1.132551 -1.140066 -0.877515 -0.883500 -0.677775 -0.682524 -0.521863 -0.525617 -0.400563 -0.403521 -0.306503 -0.308825 -0.233805 -0.235622 -0.177800 -0.179216 -0.134795 -0.135896 -0.101880 -0.102731 -0.076767 -0.077424 -0.057668 -0.058173 -0.043190 -0.043577 -0.032249 -0.032545 -0.024007 -0.024232 -0.017818 -0.017989 -0.013185 -0.013315 -0.009728 -0.009825 -0.007156 -0.007229 -0.005248 -0.005303 -0.003838 -0.003879 -0.002798 -0.002829 -0.002034 -0.002057 -0.001475 -0.001491 -0.001066 -0.001078 -0.000768 -0.000777 -0.000552 -0.000559 -0.000396 -0.000401 -0.000283 -0.000287 -0.000202 -0.000205 -0.000144 -0.000146 -0.000103 -0.000104 -0.000073 -0.000074 -0.000053 -0.000054 -0.000039 -0.000039 -0.000029 -0.000029 -0.000022 -0.000023 -0.000018 -0.000018 -0.000014 -0.000014 -0.000009 -0.000009 -0.000003 -0.000002 0.000009 0.000010 0.000030 0.000031 0.000067 0.000069 0.000131 0.000134 0.000238 0.000244 0.000416 0.000425 0.000707 0.000722 0.001182 0.001206 0.001951 0.001990 0.003197 0.003260 0.005212 0.005315 0.008478 0.008644 0.013770 0.014040 0.022347 0.022783 0.036221 0.036921 0.058572 0.059688 0.094358 0.096116 0.151159 0.153887 0.240326 0.244490 0.378456 0.384689 0.589162 0.598291 0.905017 0.918066 1.369391 1.387543 2.037649 2.062138 2.976921 3.008820 4.263265 4.303127 5.974741 6.022029 8.178704 8.230793 10.911890 10.961602 14.154164 14.179978 17.808070 17.725895 21.752624 21.153348 24.539881 23.699489 25.557157 24.814248 15964.033303 16900.255548 15190.134281 19010.512064 17804.419280 10713.276597 15252.544573 15764.545201 13284.449611 12817.293107 16180.977199 17005.233895 15453.340330 12061.831669 15238.462912 12241.408805 10694.584623 12927.735224 13150.618917 11300.523215 13796.644776 13158.016355 18440.475670 17357.113894 17019.101708 16899.105159 14990.454972 16863.314775 8621.104082 14603.402321 12736.178697 3680.266000 16911.964474 16283.983322 15760.304096 17681.112193 10012.687163 15610.502398 17196.442532 12439.262299 8249.105163 14927.748998 7584.173582 15938.752915 12903.612709 6571.511471 15005.495893 19845.223707 17919.686425 15575.042959 16018.400514 15784.893708 7749.979973 12357.363695 12228.255691 14934.820543 19357.924188 18154.300546 19081.201139 17638.481309 14400.566763 17356.204777 15291.692435 13539.158624 12575.548510 17381.737842 16883.229623 15956.838330 18923.184218 19129.624891 18413.130188 13579.648470 15878.846855 17199.808713 14432.567498 13978.999626 7689.351901 18417.412289 18621.086861 19252.226754 16138.176926 19916.810109 14956.448817 13070.115442 15409.122091 16269.157205 10748.002284 10476.730455 20378.506010 20473.085656 15713.897124 18049.972950 18886.512926 15445.076526 13356.285153 18065.518343 14409.032422 10990.513877 14597.139854 20591.296339 18145.574554 14543.153103 15966.900585 12785.409847 17755.936484 12046.564572 14535.283867 15627.535827 3898.169184 11428.966380 20996.306622 17634.444969 18447.965262 5770.580469 18392.876226 11759.762450 17043.753414 7611.045016 9325.487274 7023.830064 5710.102686 17155.144193 17794.097854 11850.292708 19561.922913 6736.691542 15463.820346 10436.893648 11613.588986 13096.350683 13339.730558 10715.214506 20308.040090 17183.424912 19012.467399 15465.461893 13438.399799 15457.494407 15730.031598 10775.537623 17219.258102 17349.605455 10268.142281 19687.075656 17051.585139 19175.981565 18885.958749 17013.737090 14983.323712 14328.622960 13538.106355 16433.696201 7314.078699 8336.624492 19476.397752 18874.890186 19872.126967 16795.688128 13483.455101 19313.961302 12981.032895 12734.880642 6687.214280 10127.110967 7128.490995 20212.509591 19305.501420 18298.386720 14853.142994 13859.763118 11793.303764 9277.200814 5263.227099 2996.737726 5347.610240 4199.781526 17680.492389 18996.757636 17315.700260 19210.293969 16219.287879 16028.486224 12481.080229 13557.048218 7012.145773 1355.192237 1794.595303 20152.084490 15759.478229 17858.336334 12191.171454 10568.941698 4702.672954 3864.234239 6458.179437 2913.996949 413.235925 3039.231025 18578.077719 17100.175198 16877.061301 16642.218053 13172.511578 6387.750158 9071.225297 5862.345969 6285.445186 4833.007299 1575.498812 20134.400562 18167.947226 19063.231335 14037.486699 7361.584522 7963.069570 6830.358430 5168.663339 2804.511929 1618.544773 2387.439651 19812.563323 17069.112623 18452.120377 15339.431123 9834.416144 4340.880024 5407.099232 3196.701466 2154.031235 7983.903938 4475.103348 17566.852223 16833.475658 14411.091987 13013.149401 11441.852435 5619.133741 5200.109106 2230.607780 4306.429113 3096.166199 -15.179677 18894.358327 18089.820547 15375.317736 10549.688670 10558.642311 10515.305376 3376.545350 3943.506874 2265.292542 1835.937024 3827.765320 17713.038598 16034.190056 14431.269771 11165.591468 5558.291259 8655.682104 11288.952385 10035.868282 7508.007682 5368.562905 2573.191749 16755.439098 16501.066729 14534.764193 10265.617204 10682.095666 12548.383794 7015.431688 932.380011 8426.120416 6239.385137 4207.444446 19781.187468 16566.482211 15185.572994 17367.767507 15127.401216 11357.478463 6051.821452 5707.984588 7428.633665 7987.236949 2173.561600 18872.207018 17282.671369 16239.209420 13311.586660 15011.961230 5673.852662 11900.335230 5432.234092 4986.851098 3081.840424 3801.406897 17204.224220 13763.749952 11762.553426 12879.553896 14323.254848 12189.474408 10735.689342 13589.828761 5955.292729 4651.856257 9623.538221 18393.789172 18682.457975 15838.985940 14907.838934 15735.086076 10608.536723 5151.774655 7818.101921 6176.197675 6415.521608 4975.435653 19972.749097 16603.270394 15267.843405 10629.342170 13339.058256 9595.490532 11390.223194 5668.806693 10132.411172 8137.063238 3130.604787 18659.172298 16349.763257 19506.965833 14431.932626 14953.289913 5557.645936 8167.044861 12076.148262 10581.861525 6861.950017 3266.914264 20874.611306 18235.901396 16184.607730 14851.958035 15242.358836 14090.778495 12959.018827 8737.010318 12209.212837 11274.977152 4985.463759 20148.036562 8039.609651 18520.595773 16354.168886 17532.839325 13427.124448 7500.598061 11154.756120 5257.312964 6841.620430 2991.698745 20675.242273 19182.295390 16722.759436 17411.190623 15883.356925 11308.700494 13349.843938 10182.695251 5868.944005 4993.863479 7176.225051 20184.178934 19121.774240 17664.167456 19374.454305 16887.844008 15085.173956 13274.757640 8156.423654 5979.322258 6194.065939 2646.316712 21030.656832 20696.009059 19505.910350 18087.990962 18216.362702 17613.309734 12922.366375 15728.548257 5393.838703 3510.674164 3751.728726 20678.656348 19193.596887 16860.392489 19565.911398 22040.388442 14080.161613 15298.737603 12204.730775 10226.434187 6784.302927 2362.381542 18330.587251 19842.289659 17426.994742 21874.972161 21663.618261 11857.427205 14538.761871 12801.633766 16599.854232 2435.748977 6480.492209 24102.183059 21699.978904 21514.736275 17398.335177 19964.805294 10116.965656 10455.997658 5942.642248 9557.555247 4553.550835 3723.454918 21740.688579 21261.646332 21112.959103 15671.771104 7910.078099 12133.188557 6712.548603 5801.946675 2897.058665 10053.712560 -2534.499846 23904.258279 22744.405670 23794.649838 18347.456752 20061.192679 11450.412236 9174.469827 6587.140442 9688.242368 -482.699838 5323.420519 22672.310336 22165.022571 22492.434431 16132.693948 15031.707934 12815.905199 17002.767840 8826.567860 5420.382733 2970.738921 4146.721416 26517.611054 24947.672921 21561.295038 18737.395964 15957.888838 12407.798500 13105.725419 9989.402489 7761.863262 4818.681865 4191.052492 23975.054224 22897.434506 22896.932566 23109.801427 13876.184848 14364.832372 8688.067205 7945.320262 6758.698126 4499.149276 1610.064298 27312.627648 23046.523810 21304.328093 11784.631820 16173.405457 15657.467893 9893.480273 14079.796758 5861.770684 7494.318752 2737.296410 22843.394566 22844.944699 23710.337174 8347.363113 6249.565942 10725.373905 9435.384971 7636.549675 6521.311416 6416.215021 -7268.660336 27982.311236 20872.582636 18402.243220 18935.246041 11084.890598 15408.733849 14385.186415 5731.715449 5955.443079 7969.992669 5268.070138 26213.655324 25444.351062 22360.953142 20501.920732 14563.700783 13327.887507 6085.375502 16841.462653 5398.480119 3291.419296 2068.614009 26847.573903 26157.169302 21929.226933 17501.836646 13021.825998 18057.048587 16259.788708 6487.624582 8445.957108 4602.859456 5363.830875 24206.308258 22721.769314 23879.764138 19328.693969 19213.988436 16982.696386 18544.104015 9751.888095 12735.709402 3884.982816 2622.147838 23800.323781 19579.847436 22839.955599 22277.224261 15027.550018 15514.488927 12612.431049 13683.002289 9066.545150 5721.670169 1750.014547 25614.906185 24182.421546 21189.282117 18467.190707 19342.153338 14131.579612 13566.317724 11941.232730 6842.112748 3380.749696 3196.094097 23522.096095 24500.340741 23485.487244 20991.936334 19567.629813 13797.899443 10299.086818 8882.511848 13673.678790 6186.312054 3076.752430 21364.707626 23563.464559 24222.271626 22670.751843 19094.688374 13183.306561 8776.501337 8459.587510 5167.601317 3919.800770 4424.187720 24569.457491 24684.453241 23269.423654 20739.371784 10669.120898 6579.228957 6379.775858 6550.466235 4293.834985 3665.744734 4878.749725 23668.334717 24563.220870 22505.117768 20381.596479 13847.616225 10347.105293 8217.189946 4297.182201 3885.266784 4156.359914 4720.798588 26221.635314 21794.773709 23009.397347 18471.240331 11314.814954 8430.437692 9093.947833 5615.579351 5314.626152 3883.206401 -16104.085233 23959.313394 26060.571353 18171.278202 10764.634393 16533.745967 11488.370642 11531.951147 8711.300993 6974.361647 4662.260667 3282.560558 28106.964583 22403.340717 21169.646076 18508.100876 13546.840279 11052.513956 11093.063051 14454.222778 6177.276666 4181.353272 1879.745279 23834.366389 21751.832495 22912.958333 20499.956415 16534.039364 17309.177477 10640.645547 7613.899618 4235.042418 4092.400195 5272.463167 22308.979183 18238.707718 20220.176697 20871.024282 13702.147402 14704.567468 5692.889632 4136.860316 2480.702410 2588.184326 -6802.708071 27910.801716 22231.589879 18305.025269 16784.191613 16730.080400 13380.428555 4983.362077 4331.744321 6589.576215 2323.613935 8578.785073 24235.627262 23771.038494 20436.049975 18622.712254 14960.805781 10756.260672 13851.441883 3753.909974 4831.853426 1240.521004 1733.935251 27164.179149 23638.792155 24452.775102 18057.899700 17148.604994 13244.531501 7609.516721 7776.677897 2347.987036 3036.210140 -957.402139 24355.235705 21866.004320 25451.981580 19412.066598 12126.580571 16556.196060 10387.495019 6650.966413 4955.093024 2527.292894 3389.975434 23712.144776 24723.651603 21256.314121 18695.402865 12971.936407 11633.085492 8235.244063 8525.682695 5509.967801 2504.957662 2476.027033 26710.623433 25796.506698 23116.033210 18185.385393 9600.628596 12397.504780 8408.962471 5514.528373 3354.128862 4252.315790 4317.808898 26448.227032 20570.575283 21444.313858 17423.655590 10962.647431 7292.068662 4183.692836 8524.106037 5374.930258 2753.115002 3007.113362 21639.269561 23865.179827 18145.093672 16895.781713 14822.463977 7418.237804 8504.629159 6042.480830 6916.778866 3522.582879 1805.842119 25451.791844 20585.463212 20144.370673 17377.927081 13611.684481 8577.050896 10012.256331 7079.405009 5393.317431 2812.039897 -2160.911156 23197.173647 24634.302863 20356.217909 18550.962081 13278.660058 13715.295308 6656.356700 7708.385510 6220.189350 3754.109892 -10369.535344 24956.296518 17040.703070 19021.199728 21037.852873 16343.768832 12339.274969 9969.781356 6137.503913 5726.836448 5936.698051 -96.939380 20731.929034 24300.298401 22404.728115 14969.437562 11095.790163 14819.974573 11006.173030 5496.202911 6064.781851 -1259.522490 8401.540665 21717.031285 20662.005011 16742.935364 19270.420601 16132.136231 15357.052875 9027.711420 5669.581921 1069.397310 -1254.841651 -14783.225480 22493.066427 23611.473500 18920.499271 16306.515730 17186.074146 11865.841956 8644.408066 7912.251150 2105.134501 633.346430 -7000.990147 20754.483042 21953.012668 17876.596156 17108.182035 14122.202697 8051.319647 11008.973965 1803.527693 3299.631327 8503.201581 1872.906353 22612.804550 21347.396357 21273.106042 22219.279081 13409.825669 12153.410046 8373.706246 5432.349895 5412.404008 4606.428762 6224.644357 21884.773950 21661.859745 19338.468235 20032.657815 14242.712850 10380.172019 7708.997483 8530.582189 2503.075262 -924.715449 5125.078086 18663.818688 18718.875251 19201.449213 17587.443340 16752.746637 13581.678103 12474.495369 7471.932708 4387.487616 6148.166999 10410.346148 18957.217375 20388.074943 16820.376758 18306.516759 13320.685259 11970.726956 9507.189340 6015.187993 7458.158466 2652.837182 4430.299990 22701.186042 19608.250066 18205.898319 16503.477344 14140.337940 12423.853795 7966.945800 10435.687291 7645.117886 4714.662296 2446.453973 18625.216244 18248.469342 17246.825065 16960.677022 14039.972585 10882.455802 13365.240916 8959.058657 5928.198893 7368.356561 7730.926414 21016.735010 16545.208921 16235.672746 15418.712255 16486.123598 12277.507470 9237.037386 8478.955823 9179.490027 5023.733291 2971.901719 17524.224618 15133.346597 14682.861003 14476.256330 12205.040928 13102.634531 7709.698662 9248.810585 9709.288189 8354.128271 5063.613297 17155.398900 11881.916915 15624.501940 13492.326096 15551.526614 8902.468600 11606.309111 6222.001081 7680.359490 4109.447222 -1828.703702 19149.444659 17651.144186 11473.064323 11253.896640 10327.821780 9316.159875 9473.254414 9245.475422 4679.810723 6030.015336 5072.859704 15763.457004 9404.623015 12149.556998 13006.058625 9774.152360 8785.429809 12333.228157 9178.521766 7534.357738 6602.660754 -1582.748137 18054.158200 15929.547297 12038.324934 10818.925811 7127.416336 9906.248567 5174.711958 7048.225169 7633.190481 648.749277 2433.065568 17898.742432 13103.940668 12381.989451 6890.181155 10529.494861 6925.806354 7390.413443 10268.888421 3424.322562 3695.727439 992.004155 17359.024588 17421.035569 11316.155177 11197.335074 7885.215988 8765.192058 7150.062186 5638.056935 5235.011492 2549.074244 -1538.055832 17331.379016 14059.493124 10978.417268 10368.356398 7145.412456 8829.003289 4246.766214 7532.725119 4477.584914 7175.680721 92.290403 14159.106314 13021.279807 7118.826117 14581.014800 7996.726224 6555.634086 4936.516781 4934.264408 3554.334173 3015.970760 6282.572025 15444.701521 12619.298863 12923.935347 11412.560053 10504.795565 4683.592026 5360.601699 4646.664546 5582.566394 4966.751479 -641.609451 15928.088713 12269.636891 12840.452219 9218.119962 8343.000526 6631.369740 2839.246998 6255.400141 1893.451200 4949.944892 115.105236 12979.520664 10213.980603 9395.600017 6605.368383 6802.401273 6413.097337 3372.214625 2110.212024 2014.267354 4773.023067 451.251396 12313.182749 10718.722987 11872.855904 6816.545942 4948.662294 5163.498351 2372.083592 1941.952435 4173.081388 5342.644386 6287.624696 10933.660202 11672.474534 7467.184280 3497.285455 3358.831832 701.444801 4339.865363 3320.389514 933.614473 3251.675786 4208.964749 10667.934446 12672.806129 9821.048479 7058.905648 4766.575407 2585.612271 1316.827912 3443.104478 2649.401403 4033.319294 1717.170464 10281.494167 4923.830427 6344.551856 8429.406771 8691.285691 2290.247877 6345.032227 -120.283268 -338.903716 4279.236293 -4433.293696 9284.033279 10189.370989 12134.386373 10038.533561 5107.778210 9161.659771 5272.794602 1275.974783 1461.832251 2382.165198 2842.498274 10793.627710 8935.417767 7222.499748 6331.104663 6568.233349 3324.167972 7859.710457 7737.061097 1712.332101 -585.490541 4252.482218 13180.614341 17474.287340 17209.214388 14307.326757 11535.266477 14446.166092 12806.903424 14192.271781 16097.284038 12076.389506 8272.211031 10311.436145 8065.219064 -9529.109834 14117.604375 9958.688103 14678.932751 15007.676238 7352.378955 15112.984737 10364.437097 7114.053675 14230.775252 6820.955010 8065.838221 7323.562856 5317.257426 8673.093177 7967.212156 11754.965348 9042.755436 5692.035515 8073.027650 3126.513083 10534.072017 7910.882721 12002.232397 5342.057558 3990.131543 5303.087378 5929.852985 4744.531865 11051.729326 8368.805340 9302.096532 10920.795004 8312.417051 9022.791839 11772.077161 9647.571029 5304.542140 11165.178682 7678.044056 7113.125816 6529.709351 1153.668231 11369.130097 16044.861380 8492.670365 7171.162462 14687.006155 10587.849856 10366.709077 10057.140092 7585.109014 3636.100164 6695.510865 5217.022492 4381.617585 694.392385 8952.714023 12625.237903 9895.664383 16889.986068 11866.420970 14756.281206 14228.126090 6018.243278 5820.650404 5626.760987 5088.715589 4589.312414 10330.402309 4760.206592 18532.505671 3048.117409 9420.484147 8376.649999 1932.346678 11106.489419 10695.214972 12093.968348 7486.858775 8168.334412 5209.040546 4086.417249 3375.642779 5532.421625 9644.734942 7635.919418 10008.762517 13258.133872 8136.892879 12895.756601 6141.454535 2987.211606 2417.560755 5008.469794 7744.262347 5196.862317 4597.416108 1413.336094 12833.138422 12416.820341 8295.608078 3479.329956 8971.326709 4328.067343 7524.146245 4753.865546 2548.385781 8070.984903 4326.813783 7065.790127 2972.102817 3134.901416 6125.103477 6550.400568 9466.626238 7592.944596 9048.103039 2830.447972 8361.536652 6673.560793 11668.003777 3013.335951 3750.745961 3028.572168 2903.524420 2883.579889 4404.490873 8188.698163 14765.623267 9875.315572 5829.414793 4882.580811 2591.154163 10534.318872 6580.199603 7721.483996 8533.473269 4969.500361 4908.120945 4950.954542 8281.343787 6049.676657 7069.188453 13730.526287 3784.924187 10890.820073 1665.700560 10229.779094 6284.434984 7821.125874 6831.556549 11871.235838 2194.596473 2519.867267 2848.320665 3799.875882 1617.444110 7985.107194 5085.883694 1828.745241 6089.772868 14334.636351 14615.864823 7057.852430 5797.969923 4609.840104 1896.974170 2683.916791 1118.501351 5643.633371 3444.121516 4943.146382 6235.710706 2569.033944 4156.948555 8800.856209 3969.821352 9408.708506 3897.389636 3159.609725 4719.113366 3711.761782 4835.018328 3176.618090 2876.731687 2594.926704 4091.936628 3548.134603 8143.999125 4019.873005 2468.384118 996.114740 4284.459097 2189.565909 3730.834350 2850.605544
</DataArray>
<DataArray type="Float64" Name="Velocity" NumberOfComponents="3" format="ascii">