<VTKFile type="PolyData">
<PolyData>
<Piece NumberOfPoints="1945" NumberOfVerts="1945" NumberOfLines="0" NumberOfStrips="0" NumberOfPolys="0">
<PointData>
<DataArray type="Float64" Name="Pressure" format="ascii">
 24977.421206 21563.315630 28266.786694 23171.756276 26505.872795 26491.280525 23635.936692 24038.392002 22461.222362 23653.936946 21914.490230 22637.162252 22330.477626 24082.168137 20780.451780 21575.333175 21961.302874 22562.349938 22191.628150 23102.087177 20292.070863 21978.100049 25661.058224 26371.781335 21704.085018 22446.410998 20950.487838 24421.001828 25415.651533 27462.285657 20563.439434 21180.838290 25471.960847 25570.646153 20925.860557 21095.422085 24099.377497 23407.801122 20880.068595 22555.174517 18234.803618 17970.745569 25638.776096 26268.473189 16140.119809 17881.690370 21997.435613 24154.435774 18385.109540 20965.005589 19202.973519 23587.884258 18010.362646 20240.047320 21093.028089 23882.123650 21266.244391 22182.575174 24022.018156 23381.157892 22811.382533 22778.933738 25587.880824 22998.796681 23338.263904 21538.567022 26292.752964 22623.065204 26373.502724 22314.803111 22696.130562 21469.599846 24084.342993 24269.858311 20743.904721 21016.498370 21093.624377 21117.979249 21563.162516 19765.529303 22689.368965 22263.122350 22363.735816 22941.813742 21057.552725 21815.679548 23241.895915 22411.505493 22556.885545 23682.312563 22338.260764 22424.632654 24479.986014 23819.611650 20550.570673 20463.006620 21752.466441 22285.644346 21542.271520 21533.114255 22671.097394 21147.805358 23101.767338 21611.658995 21089.243721 20532.251537 22829.235997 21763.718699 23609.851042 22536.371217 21893.218646 22292.215668 22520.215338 22099.587501 20545.937046 19451.906080 20972.652562 21054.091967 19277.915213 19741.906223 18878.352432 18806.255018 18089.378023 18542.737945 17976.550125 17496.730165 20026.095260 17850.108891 18857.548272 16433.017562 19165.565125 16511.373650 16871.585152 16373.654627 13967.784888 15747.399473 16945.855042 18669.316214 15103.835893 16219.828107 17067.318956 17905.722992 14561.972180 16330.270104 16382.629181 17614.102289 15062.537653 16284.953969 16848.400895 17438.089926 15797.260318 16673.152030 16848.179538 18161.161905 15750.589559 17255.208083 14324.049092 15554.544092 15506.406028 18164.373007 15572.364955 16642.846629 17127.408554 16775.803797 15998.546739 16232.239594 14876.631329 16673.673083 15158.483070 15730.087152 15600.702608 15866.237077 15271.319314 15640.759967 16172.416468 15964.479357 16281.932405 15333.564513 15301.294260 13335.852192 17415.341800 15073.470567 16611.155603 14202.578091 16567.936196 15698.480855 16242.231821 15144.754214 16394.819563 15749.935870 14864.520811 15434.139608 16652.432641 16550.155682 17630.437930 16532.670614 16899.817362 16877.337353 14567.640254 16033.897390 14202.020428 14334.249175 15530.857608 13731.229766 15066.126194 13971.371949 14107.100816 14613.286823 14236.909791 15547.867574 21433.820294 26257.607663 25026.185797 20858.262457 18568.608625 18998.872369 17056.264577 14594.404490 13375.824304 12471.708710 9765.139133 7644.463018 5599.439110 4023.445548 -364.091367 -5460.084052 -5971.953784 -5169.842450 -4308.233444 -3603.556961 -3024.279409 -2561.043094 -2204.678023 -1946.505709 -1777.911073 -1689.282249 -1669.182349 -1704.275697 -1779.970194 -1881.451061 -1994.756255 -2107.651076 -2210.190780 -2294.961803 -2357.051722 -2393.822555 -2404.563521 -2390.088935 -2352.331635 -2293.966791 -2218.087075 -2127.939088 -2026.722606 -1917.448561 -1802.848243 -1685.324874 -1566.940026 -1449.438029 -1334.374955 -1223.776313 -1124.336481 17932.485942 21986.701745 23590.217196 21103.911423 17792.892829 19163.489266 16264.775258 13696.170523 13409.318241 11390.310803 9073.658455 7650.691337 3903.012202 4817.193159 -908.493004 -10429.468070 -6436.228629 -5082.172561 -4316.876185 -3625.818708 -3047.833266 -2583.103170 -2224.829945 -1964.755069 -1794.170052 -1703.298745 -1680.644043 -1712.943736 -1785.769387 -1884.498220 -1995.338940 -2106.178527 -2207.136474 -2290.810597 -2352.258290 -2388.783222 -2399.600827 -2385.446770 -2348.178310 -2290.403358 -2215.158573 -2125.646832 -2025.036145 -1916.316369 -1802.206539 -1685.103604 -1567.061328 -1449.778603 -1334.515574 -1221.494950 -1105.902960 14984.725127 14656.504828 13364.569417 13139.549035 10386.719150 9655.445032 9344.447893 9313.770637 7980.239049 5744.305749 6799.239496 4401.638573 3076.168460 2295.216149 1738.447749 1338.009058 1041.480407 811.293142 622.446996 459.391578 313.111892 178.839072 54.412351 -60.829144 -166.767749 -262.960975 -348.915010 -424.238786 -488.720104 -542.352089 -585.329321 -618.026796 -640.970491 -654.805267 -660.263560 -658.136823 -649.250594 -634.443408 -614.549378 -590.384039 -562.733020 -532.343073 -499.915098 -466.098826 -431.488931 -396.622305 -361.975854 -327.961472 -294.898271 -262.844197 -230.524792 14813.882484 13746.619307 12466.504434 11790.616241 10514.163757 9550.799643 8753.355461 7430.942010 6763.242543 6022.800371 5174.625642 4114.801205 3110.121843 2335.391790 1770.153406 1360.197068 1056.064042 820.530708 628.226766 463.093975 315.667867 180.838312 56.205304 -59.051601 -164.917177 -261.012110 -346.879398 -422.147372 -486.611969 -540.267410 -583.305223 -616.095149 -639.157019 -653.129457 -658.739064 -656.772100 -648.049644 -633.406508 -613.673752 -589.664454 -562.162290 -531.912490 -499.614793 -465.918090 -431.416535 -396.647047 -362.088611 -328.166530 -295.281468 -263.979152 -236.060142 -1051.485699 -1017.649529 -1021.952076 -989.194480 -947.341908 -928.467103 -853.549497 -851.036967 -772.260221 -772.318616 -697.607869 -698.087737 -628.606932 -629.142272 -564.955919 -565.483375 -506.437472 -506.944036 -452.823830 -453.305587 -403.868821 -404.323989 -359.312545 -359.740208 -318.887077 -319.286885 -282.321429 -282.693467 -249.345640 -249.690334 -219.694064 -220.012112 -193.107993 -193.400309 -169.337714 -169.605370 -148.144063 -148.388252 -129.299584 -129.521582 -112.589321 -112.790454 -97.811312 -97.992934 -84.776836 -84.940305 -73.310440 -73.457101 -63.249792 -63.380959 -54.445387 -54.562334 -46.760136 -46.864088 -40.068867 -40.160990 -34.257752 -34.339152 -29.223689 -29.295402 -24.873642 -24.936640 -21.123979 -21.179163 -17.899786 -17.947989 -15.134200 -15.176188 -12.767751 -12.804223 -10.747720 -10.779315 -9.027531 -9.054827 -7.566168 -7.589687 -6.327629 -6.347839 -5.280409 -5.297730 -4.397026 -4.411833 -3.653583 -3.666207 -3.029355 -3.040091 -2.506428 -2.515535 -2.069360 -2.077066 -1.704878 -1.711381 -1.401604 -1.407078 -1.149813 -1.154409 -0.941211 -0.945060 -0.768747 -0.771961 -0.626436 -0.629113 -0.509211 -0.511433 -0.412790 -0.414629 -0.333558 -0.335073 -0.268465 -0.269707 -0.214940 -0.215952 -0.170812 -0.171628 -0.134241 -0.134893 -0.103669 -0.104180 -0.077764 -0.078154 -0.055386 -0.055673 -0.035556 -0.035755 -0.017435 -0.017557 -0.000311 -0.000370 0.016397 0.016388 0.033126 0.033150 0.050137 0.050174 0.067464 0.067487 0.084839 0.084811 0.101585 0.101458 0.116479 0.116188 0.127569 0.127027 0.131945 0.131038 0.125457 0.124042 0.102373 0.100267 0.054970 0.051943 -0.026948 -0.031177 -0.156595 -0.162367 -0.350829 -0.358550 -0.630833 -0.640985 -1.022863 -1.036004 -1.559031 -1.575798 -2.278106 -2.299219 -3.226316 -3.252573 -4.458099 -4.490367 -6.036766 -6.075975 -8.035041 -8.082160 -10.535393 -10.591414 -13.630130 -13.696033 -17.421171 -17.497894 -22.019445 -22.107838 -27.543850 -27.644630 -34.119725 -34.233426 -41.876791 -42.003703 -50.946530 -51.086648 -61.459005 -61.611958 -73.539138 -73.704087 -87.302576 -87.477860 -102.851767 -103.032986 -120.275591 -120.444267 -139.673129 -139.727212 -161.316959 -160.663115 -186.812713 -181.645107 -207.415323 -198.388246 -215.862662 -206.582361 21780.416015 23569.242428 21075.891011 22416.662092 23811.411559 19273.261848 22357.070718 22849.579500 23735.409858 16661.334172 21938.580956 21731.744430 21171.240297 19645.351967 24815.032929 16499.970822 13078.507590 15301.092560 20339.862066 15934.496599 18854.459904 19001.960921 23100.487334 22315.382548 24621.913858 22481.818377 23877.927027 24242.995466 20815.601799 20987.572382 19021.201168 7159.943958 20822.450707 22515.272041 24071.233762 23210.403216 13677.646800 19992.337165 22468.716588 19666.414336 12421.610429 20598.767012 14187.600953 24056.466374 19285.846021 10236.299634 24093.250562 22645.711387 23970.382907 18885.141954 23076.521936 17329.081751 10254.117655 17563.018864 20706.178372 24732.634049 24441.929178 23103.474745 24980.975046 24711.463748 21331.262733 23751.466170 25222.968658 19954.651757 19311.285689 22440.617193 23598.170183 24105.913832 26229.387542 21949.476405 23649.942507 24213.978927 25062.998755 21385.572881 20602.848934 19637.367564 14471.606827 21592.155341 21982.609152 21118.091752 22370.947074 23579.796017 19158.289863 17002.791876 21789.289543 25133.509614 14748.150256 16840.416957 22084.693884 22444.921629 17821.780250 22284.645035 21997.003509 19690.496202 19814.416624 23284.276518 22583.119108 10876.633863 16314.399749 22705.871307 22603.039749 24031.626054 23287.667859 13034.429661 20967.436859 13971.349220 22451.881984 21760.518562 7761.491764 15773.088839 23951.762419 21371.220987 22062.590920 9048.580651 24071.489854 14685.358925 19642.913545 13508.710941 13699.827330 9021.857677 7316.530898 26394.553086 21474.324575 14413.718513 25697.437263 11327.534537 20700.152386 15806.683423 14703.249564 16693.329067 16065.774809 16236.890693 23567.718548 19595.361935 18715.067414 22461.163586 14992.975011 18386.842045 15901.702088 10804.133641 19202.117851 21459.275091 16260.279128 25273.194479 21831.768340 24609.890670 26462.162341 22404.770182 18494.743447 16880.144173 14605.449413 18954.047693 11412.139351 16622.178136 22060.912350 19776.171189 22496.329294 23893.658739 17874.640062 21237.233243 14102.098067 16358.682682 10129.115088 12290.854450 10754.432910 22001.820670 19824.296528 26904.482093 17010.668863 14861.222622 14457.764460 17666.493210 13470.068455 9669.176377 6212.007303 4095.568960 20242.736527 19265.426731 21000.427401 23406.946373 20951.081884 18564.335642 14712.794074 17862.442193 13110.374709 8035.712272 2023.803406 19914.032367 19153.438490 23120.328685 19333.319840 11896.699947 8221.941782 7385.597054 10309.154441 8100.325724 7330.183631 6000.240175 18413.495069 18585.731034 20487.370830 20300.329697 18925.259762 9779.954359 16805.543794 7633.511874 8901.786074 4485.347663 6343.989762 21662.161514 18696.855674 20540.598481 18136.967625 10479.504249 10871.985811 10225.048961 9731.336089 2224.843443 17864.944539 -2647.639164 19752.737262 20042.201173 19522.189423 18312.970682 14161.941765 8748.892913 8007.800350 7668.093827 2992.211310 9337.323074 7685.200398 20866.652226 20602.802001 17620.222370 17695.507888 14657.115028 8692.655095 7351.497548 5962.361130 5305.127750 3356.684195 4780.855829 22982.532739 18820.580925 21522.044512 15256.840337 14765.244810 14552.282913 6686.842470 7066.646124 7451.470617 8819.262352 3473.462521 23436.617267 22429.381667 16799.279166 17788.406030 13286.504805 11148.758920 17129.916336 14291.001116 9565.412898 6628.201681 6356.288575 20609.345847 17094.505434 21976.814311 17599.873258 15132.140909 15167.190239 12050.015735 2099.694063 12451.222499 5303.275000 5999.685019 21859.458970 20059.929357 20824.938486 21023.852370 19335.736000 13350.547061 12018.494227 10792.100852 9445.888218 7398.759285 13009.559675 23589.144768 20377.145390 17378.864625 17852.762711 20131.497859 7935.248433 14706.007470 7574.835085 6153.957495 3674.106501 5673.898805 19416.633978 20253.348996 15313.807145 16894.091350 12293.724618 17648.935804 12936.144349 13868.955866 4120.839875 5305.797106 6946.319886 21777.648633 19722.382480 20921.487555 19098.770190 18107.823583 11668.591994 8545.668493 10956.198789 7481.678154 9823.283774 9501.178491 23330.405320 20287.235562 13142.656828 12224.946445 16562.158147 9239.209643 10999.698452 6761.557072 11203.615341 7417.205551 4606.165024 20809.162491 18632.147680 23112.925142 16507.832182 17437.210733 8003.789378 10804.060131 13659.987236 7213.482299 9707.451192 5627.943462 20351.285886 17573.249615 13744.599038 19780.910618 17054.335759 14779.971570 9199.414409 8696.904329 10583.061184 9649.095327 3337.347660 20465.601429 12359.145942 19472.238050 12572.837318 15628.484695 14162.527246 6908.637608 8454.404631 7698.240599 9168.259247 11294.312485 23185.634333 21580.309184 18388.077099 14785.185904 15888.644588 10937.640827 6976.457295 7790.151527 7349.526062 4042.583230 3125.859983 20811.036111 16685.042048 16020.636139 17664.491679 16785.150456 11504.464647 13593.172780 5505.330869 5966.479184 10746.193353 2677.501762 21941.943503 22265.523401 19017.848123 17464.349384 14253.747530 10865.320472 11012.451222 14949.557302 5428.279185 6990.000184 7289.481438 22784.797684 20318.362180 15209.041145 14903.428003 20366.221432 15210.449046 10648.911110 13239.906092 9092.852130 6705.418000 3568.854908 19476.424680 22116.126558 19207.015656 14810.657550 9924.918764 12118.945884 9361.311078 9291.226935 16515.398375 8385.914047 4834.678977 22906.484252 22447.422872 20153.788968 10986.481842 15518.329157 10794.160329 11251.390288 4801.228748 7775.751253 5405.158143 3775.955054 21860.259576 16214.515711 20123.469742 17517.878573 9911.374095 9794.249043 11973.999044 6297.839531 9240.053720 9077.094422 4103.426288 21757.833804 20191.135071 18225.121686 19020.762806 15190.768493 13158.154800 8538.319901 8806.894663 10699.811344 -512.854265 5142.971086 19873.898673 20912.966924 15816.993413 13665.206145 14370.745664 12578.448383 14736.519027 4692.727803 10129.130051 9814.617841 4244.497924 19902.991353 21033.869912 15055.326888 14402.474603 18399.708827 12247.073161 12396.418997 13173.471703 9317.778172 7947.902371 7949.539870 17455.449033 21787.505762 19045.782786 17613.825002 11514.172849 14649.474119 7191.083446 7615.729961 7077.257871 2424.129824 6919.144192 21388.395030 22005.138064 18678.600177 9628.372545 14200.647386 12862.191417 8308.101799 13101.739137 6942.731526 9912.957959 3561.489286 20936.162792 17805.463561 18638.777707 5894.857159 11531.544600 9221.811011 5470.134542 9527.703533 5716.506584 10604.352520 4408.880652 21491.186547 15436.376661 14366.146598 18535.383241 10776.998845 12874.948355 13430.200427 5838.402604 8512.540197 6835.303465 3792.767535 21436.521864 19759.783852 18526.516984 15814.732495 12225.885891 10650.418678 9385.214417 15126.701095 8301.216935 3756.695487 4083.136443 20115.253803 18903.631497 18348.959614 17078.818518 8073.764897 14367.193068 16474.874336 5865.623699 11173.191775 3641.765006 5054.758647 17602.392059 17059.785516 20629.706143 13665.778511 12165.008365 11758.778506 17278.254278 11627.069566 8847.206708 6483.967732 4201.687182 16089.876031 15020.811268 20697.717385 17727.127198 10572.967776 14110.914754 10925.937393 11494.712590 8306.799925 5333.957856 5144.880612 21850.511387 19049.276242 14268.856424 16408.288683 17828.107080 14238.273810 14435.773935 10804.069066 8529.020430 4399.984792 6771.146490 19474.339940 20069.071495 19195.027415 18274.545296 14970.600072 14539.158585 11796.356536 8689.909198 10478.105191 4562.128553 7566.664724 20849.955276 16959.569272 18342.784650 17790.776044 17989.502076 16088.565477 9102.753253 10670.797602 5978.272883 6885.000002 5293.722139 21983.797861 18969.681166 19041.412821 16271.325927 11499.635665 7775.145881 9828.910895 6044.643467 3480.753371 3193.672255 4269.412676 18681.426991 16014.681855 18981.744803 13160.155433 12745.078240 8442.763104 7375.910231 5854.711609 6783.211554 4746.917839 3722.119256 19412.349223 18079.878524 17204.126216 13369.534629 8911.552044 9635.635446 10980.832210 6825.509970 5638.470869 6168.908844 6273.111212 19312.653746 17062.678327 16154.740541 6917.056734 14293.827086 10102.262982 11141.760435 7648.336569 7376.587180 4556.721643 6478.709820 19378.187251 16185.350287 14543.109235 16069.561806 11372.375409 12185.796418 10181.967475 15967.650347 7234.445600 5312.182118 4380.303800 18603.142065 17221.405346 16233.746575 15905.388653 13645.030568 10575.459694 10643.710752 10574.439710 8670.530599 4683.755624 6277.036085 16546.125076 16737.151426 18749.856659 15432.528740 12244.604332 11778.346057 7144.902705 4961.439215 7058.523061 7158.267469 6331.928417 18052.094090 19147.080038 18106.112789 13645.130277 13944.026063 8985.386796 5291.473250 7079.072826 9039.427575 5149.451927 3084.133366 18773.586915 17953.846874 18334.213998 14201.720403 13241.531273 12391.074825 15278.151418 5479.788240 5667.669734 5867.460913 4535.737033 16451.919345 17929.665859 15621.733000 15928.196208 13014.451227 13307.042973 10851.283689 10454.783464 5458.982383 5371.152595 3355.206526 14639.619481 17758.754436 14484.956350 15258.089060 14731.298064 12675.687820 10891.861463 8333.426068 9473.280964 5572.665062 5255.523619 14497.503907 15333.237142 15428.162541 12582.871932 8902.619940 13239.560114 12421.742172 7385.918757 7290.318714 4360.169100 3527.433454 15145.817647 15683.536181 14607.669262 15880.054239 11370.386159 15706.433653 10889.089048 9404.448038 4542.981428 6820.732361 5187.494470 14022.792722 15607.043011 14603.822264 15739.740086 14237.656643 9249.986041 10857.367757 9136.030162 7022.146053 5927.011176 2827.314781 16900.108432 17198.547468 11291.954188 13968.724158 13202.969820 13297.838157 12832.485273 7897.017111 10730.038737 6426.975727 4105.478137 17443.545248 16877.820235 16921.425542 18136.626861 9697.877530 11270.591662 11436.280002 5930.479754 6631.096612 7588.528838 3705.808632 17301.053806 13559.124696 14626.241281 16268.988848 11053.802875 12495.700661 10262.449803 11487.252813 8746.323044 7368.411355 1605.899843 17204.903577 11888.144439 18547.165553 18005.520725 14384.130891 11740.505092 11723.881483 8217.593021 9249.547355 9486.914047 6049.200072 18453.115657 16648.283917 16832.543255 15345.883649 11604.047497 14246.592405 11177.910556 6557.972385 14439.013597 3328.282060 3406.430267 19398.794132 15902.032514 11995.445376 16985.351511 13196.438686 13946.782531 8870.951929 9085.428032 5514.493885 4055.553434 3509.086581 17187.302610 16921.481187 15696.621509 15778.360111 13467.346128 11081.817795 11346.000009 9974.416079 7461.029830 7835.988167 2632.431726 14017.847048 17251.085011 13003.214168 17081.735421 12918.923190 10928.340806 10783.687477 4195.644519 6429.939095 8875.976070 2991.995060 17178.895334 17735.507612 15367.766369 16485.102701 13444.701478 12732.467522 10081.668157 8925.711066 5038.571265 7101.471990 2905.533224 15375.292399 18930.574644 14574.876054 16111.824274 11433.307579 10918.251102 9650.749297 10695.557668 5210.654780 7259.318223 3131.297819 17809.330587 13059.556199 14974.786722 12834.544718 14336.209634 13016.937126 14195.587539 10188.944978 7408.710803 7163.875519 5216.513488 16665.732440 16107.824174 15888.813707 15022.123497 11241.276398 9199.271127 13264.102802 7129.366603 11078.256978 3062.919208 9526.539752 16758.864402 17970.567525 15395.911413 13235.346879 12620.577326 13799.500761 9525.120771 11149.841453 9856.865009 5391.199356 2689.789910 14595.201480 16195.419220 14685.815227 13741.888057 14816.239935 14713.277232 13710.163888 9392.084537 10350.922032 8943.581270 5651.210055 15981.527356 15175.937692 14623.796450 14396.151032 14510.855136 12148.063146 9364.708024 9110.841876 10432.262393 9243.769576 5168.595770 13943.328838 12720.407198 16261.336494 13839.850282 11121.164723 11493.214720 8175.185112 11110.067157 9308.333307 8865.888795 4844.321298 15933.159677 13531.901404 13984.696078 16123.859892 12370.089963 9946.132919 12909.914620 5579.366075 9279.337701 8884.375240 5361.503181 15578.313628 14732.256015 13516.148804 14525.888791 14410.491747 11865.043821 11468.411276 8803.222147 6343.700060 4674.339392 7090.446714 15350.127715 13785.454681 13745.188344 13901.474004 13210.886632 10828.561381 11616.428893 7589.681999 5141.133361 5420.247561 2054.219000 15711.824045 13840.384966 13297.820070 13486.753413 12322.381468 12307.350301 9814.247049 7388.298763 4555.112762 4694.258882 6004.448090 14176.360262 13113.815773 13007.297385 12929.026882 11510.677120 5736.355801 9817.084830 11647.204062 8416.340536 8044.059372 4973.679959 14501.594711 13676.655391 11903.172320 12914.516030 5694.461970 11530.603683 10985.632992 8384.929578 8359.054967 3377.067028 5310.154436 14948.478253 13986.720012 13268.831723 13423.582949 7757.364775 11824.532408 4706.710445 9029.540489 8985.346162 7543.788444 3710.529431 14240.004941 14432.070443 9934.876828 13553.575631 7697.121470 10541.619905 10868.802139 10584.811720 7564.413781 8823.362291 8205.737920 13714.880500 13316.607814 13304.520518 13557.979001 13903.549354 9622.381433 12341.286013 8304.652702 6905.541836 6704.882334 4377.590139 15878.841335 14061.247052 12813.822324 15839.142000 10949.982955 10705.891524 5503.969066 13349.692800 7435.680247 6641.032449 4498.744483 15991.382522 12494.184228 10492.384034 10740.855022 11560.108642 13626.958208 10506.531218 9262.968345 1453.181404 3472.837933 6854.405457 14604.572161 15458.934696 15019.106927 10621.081992 12898.812106 8044.295775 8205.166897 7581.550431 7216.543111 3554.538018 4499.226984 14470.908781 12931.974216 13204.461580 10677.780439 9902.350640 7727.310091 9654.876934 7371.143904 5671.764566 6356.271733 2459.645401 15574.852366 13160.505098 13230.962505 12956.033996 10408.097323 7366.444724 7328.256941 9378.632197 6390.021744 3943.355748 9318.820201 11918.811097 9846.933779 12258.465346 14539.159753 12385.836677 7618.730606 12673.613754 3570.826863 5276.225161 3684.175984 2981.651114 16265.404209 13845.487230 16197.803223 14822.914325 12441.688655 14114.359285 11013.038305 3762.184778 8831.697417 6900.560843 4675.979558 14194.546744 13284.107872 14881.708268 10096.494914 13201.378609 10433.474798 13076.958959 14143.182859 6278.045035 7592.072791 4418.717891 21283.036015 21683.654769 22210.841725 23392.722036 15411.069064 20013.891434 17942.131588 23202.544458 22726.445773 18420.665507 14842.275857 11837.548488 3305.512674 8736.050853 23481.889585 12465.478021 24650.846812 19887.205161 9938.108580 21383.640292 13430.012728 11320.866665 18288.577899 8668.282722 12624.193233 8723.993972 7609.984498 13907.135010 11000.797235 16031.522935 15914.687172 11970.873261 6807.645669 11539.057607 14139.924652 15892.682441 16717.290681 6888.957432 6203.371874 9374.212671 7389.518246 3017.490226 17610.640538 15243.647078 16459.417197 13694.634716 17311.072855 16193.974435 14019.943648 20118.465292 6468.224562 21144.139084 14208.215588 9920.385253 7802.619767 5104.649732 14662.584772 22659.196715 13539.542742 11532.135492 18728.347455 15244.852163 16588.749577 12838.239069 13598.943542 9420.596951 10346.339189 14089.558375 4645.776225 4425.760042 16128.775198 21293.447054 14733.857940 24025.624838 17090.953299 20583.763704 21373.746443 12533.327012 10653.084665 8772.692541 9127.176755 8491.847941 14504.079062 3325.680243 22164.719600 8872.504773 13963.788488 17277.757609 5030.391998 16561.575331 18090.727102 21766.786282 14952.956031 12590.928100 9893.645868 8079.167011 3966.531422 7161.538550 9707.845247 11060.500853 8351.816782 18119.305347 15977.022248 16378.121937 9514.760114 10256.082234 7730.804859 7653.733921 15496.610893 6625.837101 4681.497866 5236.370596 15900.358936 20067.963427 10192.304441 6287.266775 13365.205184 10602.685791 9464.017559 8633.561439 4899.497205 11469.086195 12548.271130 10138.221969 6452.707495 8451.965361 8729.076380 14373.450326 14313.161957 7509.648666 11661.931901 10376.203907 12679.051791 12356.629912 13876.834105 7278.616881 8894.598481 5441.768352 4155.100621 8312.746497 9126.319973 9596.591963 19257.234702 15605.063498 5115.700204 8500.150804 5702.101112 17144.908187 7509.502005 12106.718994 15343.569183 12446.012540 6177.656686 6195.394795 11432.273856 4902.964281 9964.986498 19308.016537 10519.862557 15118.997529 6171.292434 11339.585776 5055.758095 10224.455154 12720.061552 22123.286899 3817.244548 6038.352299 9775.144915 3301.213704 1252.035299 12609.249889 4741.367288 6310.813895 9867.959224 18276.926781 16004.028998 9678.486647 6857.163894 7115.553414 6887.115592 4616.687741 3393.233177 8510.574013 4535.335966 4616.297650 7941.741045 8821.845257 7887.461987 12662.039772 8171.495099 13715.801026 6484.794040 3874.473743 4810.428917 2830.962971 2536.285092 4190.575118 1531.942687 1515.464849 10903.491732 5889.469787 7766.847316 6599.964369 6824.907662 2176.399572 8063.767113 4960.367355 4001.748541 7790.267937
</DataArray>
<DataArray type="Float64" Name="Velocity" NumberOfComponents="3" format="ascii">