<VTKFile type="PolyData">
<PolyData>
<Piece NumberOfPoints="1945" NumberOfVerts="1945" NumberOfLines="0" NumberOfStrips="0" NumberOfPolys="0">
<PointData>
<DataArray type="Float64" Name="Pressure" format="ascii">
 16832.755411 16650.036476 16887.761825 17520.901788 18343.317312 19244.425775 19215.854011 19990.882080 19846.375250 19777.024200 20041.115482 19360.267894 22055.652672 19151.034478 21248.942374 19821.738448 20542.056731 20908.934744 21259.769527 21332.676392 20879.004571 20212.261449 19624.924537 18698.711330 20167.786343 20771.959443 18778.357627 18357.261771 17889.117275 16707.313250 20190.223428 20071.596313 19496.685106 17123.011193 18667.645987 17181.792621 16990.572075 16430.489375 16696.503016 16453.194638 16571.700683 15876.594304 18884.097029 18679.463462 17987.259178 16402.255987 17010.808504 15941.195077 16688.746250 15982.182312 17755.204521 16669.601006 19103.437650 18686.986688 16375.023603 15513.208290 14687.659735 15157.032187 15522.676827 15645.267335 15811.459747 15841.318671 16853.718383 16462.905836 14816.016104 13393.322088 17040.007207 16610.943703 15263.242825 13734.663706 16888.534887 17002.798464 13356.896933 12724.519411 15990.532511 15051.148838 16046.434054 14039.217606 15337.874992 15357.698940 14455.230213 14066.659364 15814.382345 15939.086523 13909.900725 13859.648003 15315.794668 14452.536732 16352.727808 14867.026832 18263.325723 14545.378693 21804.055299 18833.742853 15665.323781 14975.136555 16487.508379 15826.061950 18952.086401 16666.130394 21149.357119 18750.570989 17140.165430 14484.851510 20938.810503 19095.302399 22535.233609 20513.123064 20472.639589 18107.611235 25394.805519 22641.705536 20871.837221 19106.821745 22783.539386 23417.903752 20524.426954 19478.555233 21806.213923 21721.022506 22734.448720 20275.818633 25585.215084 22279.669285 23972.355268 20907.926310 27686.880312 25581.049449 25007.035750 23106.559798 27057.903560 25578.431580 25111.062359 24012.690579 27636.304047 27035.657184 22282.567289 20968.649473 26438.691335 24837.661130 29554.061729 27368.213731 25240.119541 23433.018172 25505.173112 23845.870355 30567.929740 28649.919560 24974.876304 24033.246200 26234.025238 25092.184855 29468.661308 26209.421073 32200.240221 30012.969254 28298.859076 27522.894511 34938.177253 32637.571240 31717.459840 28906.567662 27599.653390 26321.071267 32753.665796 30146.820876 35924.847917 35879.615700 30270.585629 29311.866249 38793.623697 37156.148096 37745.227447 33556.969616 40255.925158 37700.493237 32644.210839 30806.600675 36113.753560 35670.294229 34665.309570 33300.211394 31849.374364 32500.224046 36289.724863 38467.677429 34473.669183 36660.622895 38812.442451 40993.320540 35126.604998 35807.734769 33595.647857 35923.666198 35393.276600 36654.413971 34638.958216 34515.823729 33948.549134 35803.131668 33834.592102 38945.441328 32712.427263 36453.587766 34761.043421 35653.179987 37716.406269 38773.993950 35384.211997 37961.919156 17082.161222 16321.213631 14716.238345 12923.965781 11020.799468 8702.462174 6370.100578 4917.586361 2626.448299 481.473598 2606.956617 744.781259 -5669.944631 -5734.994626 -4571.092710 -4646.659329 -7874.364197 -9741.340125 -9085.770260 -8565.761339 -8012.694318 -7467.001991 -6970.242262 -6536.654557 -6161.232703 -5830.326996 -5528.352700 -5241.545870 -4959.663438 -4676.344575 -4388.699997 -4096.545548 -3801.555030 -3506.490682 -3214.584455 -2929.087560 -2652.974079 -2388.769965 -2138.475363 -1903.551071 -1684.945541 -1483.144938 -1298.234232 -1129.961586 -977.801421 -841.013735 -718.699558 -609.859104 -513.496947 -429.037177 -358.865841 18605.477741 17941.039558 15966.835355 13269.756628 12025.689718 8291.050421 5157.843390 3178.963816 2006.071837 -5708.993771 2777.244169 2439.765340 -11337.520012 -6922.083745 -4061.936686 -3759.557891 -8458.531974 -10762.705632 -9149.007971 -8521.083045 -8005.301618 -7474.036723 -6982.354955 -6548.814163 -6171.109175 -5837.202539 -5532.412597 -5243.409708 -4960.083191 -4676.025647 -4388.211705 -4096.292288 -3801.784300 -3507.319837 -3216.033748 -2931.111888 -2655.489615 -2391.674399 -2141.662028 -1906.917970 -1688.400523 -1486.608182 -1301.638991 -1133.253872 -980.939029 -843.964460 -721.435985 -612.332977 -515.487447 -429.232860 -349.073391 38522.098836 39762.722470 36017.617734 35386.614255 32718.439866 30615.147088 28834.003120 29493.510564 27423.113709 25326.100798 20391.319366 23831.824504 25210.327632 17699.514779 14437.428457 10651.784618 9358.211048 9976.758934 1877.943024 -475.940116 -866.965662 -666.946567 -993.581907 -1087.347347 -488.231848 4731.801506 11911.497420 -6626.133678 -9324.199405 -4412.877851 -3530.878142 -2959.621474 -2374.283961 -1778.840469 -1220.219239 -740.933040 -364.974240 -96.660512 74.673850 168.087298 205.067118 205.392583 184.985585 155.329155 123.859549 94.807435 70.126783 50.311829 35.020758 23.479044 14.591085 39723.200423 38911.545853 33821.412069 32127.553935 30252.560013 28547.194019 26987.397591 26035.847049 23247.726617 21243.969555 19378.944853 18806.479998 17482.258234 15505.869954 14270.291825 13271.562580 11838.212263 10144.328712 6617.292268 3423.478671 1126.560793 -200.470897 -845.592909 -966.875287 -421.777934 869.694783 1708.385237 316.231822 -2071.191282 -3291.087514 -3314.331067 -2904.352939 -2360.788349 -1782.621213 -1234.247607 -760.566737 -386.160182 -116.294830 58.453110 155.974204 196.897410 200.512296 182.562548 154.561733 124.085445 95.537931 71.036078 51.206843 35.815118 24.232193 15.910365 -310.592176 -288.657343 -295.115620 -274.722658 -255.230254 -244.310177 -208.513280 -207.347372 -172.275583 -172.548998 -142.146926 -142.599622 -116.877920 -117.303646 -95.725428 -96.096643 -78.090785 -78.408663 -63.453814 -63.723908 -51.358719 -51.586899 -41.407827 -41.599589 -33.256391 -33.416734 -26.607497 -26.740908 -21.207045 -21.317512 -16.838903 -16.929938 -13.320316 -13.394988 -10.497631 -10.558601 -8.242379 -8.291935 -6.447721 -6.487821 -5.025274 -5.057580 -3.902297 -3.928210 -3.019218 -3.039915 -2.327496 -2.343956 -1.787763 -1.800798 -1.368243 -1.378523 -1.043409 -1.051483 -0.792849 -0.799164 -0.600310 -0.605229 -0.452914 -0.456731 -0.340500 -0.343449 -0.255085 -0.257355 -0.190425 -0.192165 -0.141657 -0.142986 -0.105011 -0.106022 -0.077575 -0.078341 -0.057109 -0.057687 -0.041897 -0.042331 -0.030631 -0.030957 -0.022318 -0.022561 -0.016206 -0.016386 -0.011727 -0.011861 -0.008458 -0.008556 -0.006079 -0.006152 -0.004355 -0.004408 -0.003109 -0.003148 -0.002213 -0.002241 -0.001569 -0.001590 -0.001109 -0.001124 -0.000782 -0.000792 -0.000549 -0.000556 -0.000384 -0.000390 -0.000268 -0.000272 -0.000186 -0.000189 -0.000129 -0.000131 -0.000089 -0.000091 -0.000062 -0.000062 -0.000042 -0.000043 -0.000029 -0.000029 -0.000020 -0.000020 -0.000014 -0.000014 -0.000009 -0.000009 -0.000006 -0.000007 -0.000005 -0.000005 -0.000003 -0.000003 -0.000003 -0.000003 -0.000003 -0.000003 -0.000003 -0.000003 -0.000004 -0.000004 -0.000005 -0.000005 -0.000007 -0.000007 -0.000010 -0.000010 -0.000014 -0.000014 -0.000019 -0.000019 -0.000025 -0.000025 -0.000032 -0.000032 -0.000039 -0.000039 -0.000045 -0.000045 -0.000047 -0.000046 -0.000039 -0.000037 -0.000011 -0.000008 0.000053 0.000058 0.000179 0.000187 0.000409 0.000423 0.000807 0.000830 0.001474 0.001509 0.002561 0.002615 0.004297 0.004381 0.007029 0.007157 0.011286 0.011482 0.017887 0.018191 0.028132 0.028608 0.044137 0.044896 0.069447 0.070689 0.110140 0.112218 0.176772 0.180305 0.287710 0.293761 0.474646 0.484955 0.791349 0.808434 1.327243 1.353072 2.230213 2.254771 3.758720 3.687801 6.550774 5.662928 9.516300 7.652554 10.910039 8.829172 17934.607046 19230.917038 14161.789102 18709.441312 17475.837273 11603.071288 16263.964099 17991.077634 15009.975815 11935.292564 16374.452961 18745.119977 15681.508433 13481.977642 17032.634899 12583.001218 8917.173753 10824.115692 11904.864664 10796.865089 15424.832260 11666.873328 21112.299985 17193.661950 19075.215376 17866.893757 16177.727897 16710.420285 8349.341270 16289.793902 14219.046917 4621.796302 19093.895357 15931.164091 18407.820454 16993.154278 8879.910438 13902.959202 16203.358600 13605.820681 8127.819503 15085.488343 5997.129215 15074.954076 11550.323772 9122.658703 17923.307731 17809.181687 17127.080178 16295.722903 16780.808422 14995.949159 7122.018910 12286.767816 12142.852122 13599.373327 15482.129300 16417.080768 20235.982759 17456.157887 13620.402630 17810.646268 13607.582131 9907.326715 8018.489865 16181.452288 12535.846168 16816.506078 16650.634479 16489.917350 16330.921365 13227.752522 12441.895155 13269.410342 11074.273129 13650.608686 6905.689591 14702.309168 15161.605091 15157.964607 14586.820165 16578.506891 10070.891588 10485.720459 13256.467375 12931.382006 8893.818172 7835.114456 16830.332618 16572.139234 15793.864146 15928.519094 15286.474961 12584.794601 10291.849049 12908.910220 11357.259827 9705.975337 12697.467668 15744.358113 13669.283565 12397.143597 13850.118706 7391.183235 15101.498455 9496.069629 11080.826760 13322.110127 4268.120799 9791.206507 17573.747837 12139.924816 16624.332887 5822.668764 14277.898950 8793.752495 10447.686747 5922.426778 6270.446853 5141.378182 3091.486739 16106.038732 15020.229126 9888.523139 15015.470800 6089.867367 11185.918424 6290.892734 8556.487153 10032.976606 8875.813853 7806.699439 14299.480112 13685.125915 13971.145890 11798.182352 10639.680757 10561.103053 11910.969190 8830.242434 11972.354266 11680.330853 8655.280066 14201.351792 13437.298559 14408.816174 13762.733575 12985.388996 10000.201384 11633.789555 9308.684956 11781.206880 6400.420439 5274.433084 15365.403264 13800.555384 13709.226732 13432.898261 10799.431607 13512.700392 8595.594099 10349.793634 2709.590275 6030.891738 5720.569771 16093.348787 13797.886343 12947.733159 11160.545350 7926.167307 7474.874496 6062.859904 3504.074641 3265.907863 1676.520482 4076.429470 13424.104981 14816.416356 13429.049159 14906.967061 11823.687838 11700.170433 8120.473046 9933.353430 5145.790250 1713.421692 784.209716 14357.734101 10675.983191 12250.057656 9700.217275 6157.892748 4240.869840 3542.005062 3443.279501 2265.774487 1023.907072 1520.987558 13018.969803 11980.906965 11033.559466 10245.619023 9694.846330 5195.755812 6882.240812 4462.566836 4433.425812 1473.438678 1641.772384 13800.357665 13658.180034 13924.138732 8819.833292 5349.776007 5785.153859 4801.362594 3488.340804 1826.188971 1465.792190 1728.224317 15176.334897 13151.017546 13002.985783 11567.566966 6424.577868 3035.189554 2010.636406 2249.374895 2155.024887 2557.265683 1332.860318 13946.727683 12028.024008 11193.287405 9223.243309 9295.801299 1644.833178 3177.106710 2612.365794 3458.198286 2516.477931 4466.296689 14765.670905 13598.912078 11020.055124 8372.924031 8376.794393 7852.142625 515.980639 3427.503027 1709.058711 2750.516552 4074.366043 12692.397681 12213.060401 10615.762770 10113.074636 4090.729688 5893.745060 7932.075844 7969.165428 4799.406627 2622.600617 2880.758288 13342.740277 11326.906433 9965.929066 6200.236854 7606.329784 10410.611271 4900.347083 744.955317 5567.400210 2028.960261 2192.004380 14485.775996 12951.751381 11613.383997 12202.789180 10804.955977 7630.017303 4946.131629 3879.529341 4563.126628 4794.066299 4146.488333 13594.057824 12848.699582 12374.268948 9296.068798 10954.902763 4829.769383 7976.879089 1650.969345 3037.591706 2059.579701 4297.385723 15468.813479 10104.120813 7178.603198 9259.225868 9652.934304 9697.795426 7042.048432 11291.816044 1210.630615 2447.212633 6414.079864 14451.438152 14180.780386 10413.040593 9599.927053 12025.250723 8279.121569 4596.188312 5474.111428 4291.353305 5469.443802 723.642111 15124.536944 13761.159945 10352.444832 7433.374975 9480.047003 7855.294704 8085.012482 3821.985074 6423.403211 4603.868843 4680.859667 14802.062036 14414.775712 14363.624834 12653.834928 9317.760556 4541.088857 6870.865823 6870.150767 5077.976989 3529.672085 2922.400226 16833.906117 15672.426735 11748.317458 10082.364544 12350.772817 10184.899285 9724.362351 5622.927846 7092.333621 6104.972865 4616.282615 14219.509991 7490.372533 13547.259918 12941.746122 13668.897332 10858.945478 5024.795945 7647.100841 2152.093508 4985.238872 896.399094 16737.426771 15108.242962 13942.630999 13139.113934 12441.553970 9904.020422 9819.672869 6079.011383 4846.707819 3035.170640 1975.546812 17148.023195 14938.575023 14610.720680 15905.085351 11772.734562 10992.299941 10050.416100 5422.499452 3696.187691 3566.681596 3494.908858 17132.775141 17132.210843 15112.912701 15453.153667 15351.404259 12960.869393 10526.942917 11686.365085 3258.934013 4531.011042 2303.487610 16972.204672 16219.621029 12394.819804 13105.397830 15528.673016 10630.761838 12283.227600 9185.727234 7554.951842 5485.122951 13764.246825 17734.377203 17781.025701 16642.096831 16489.502361 14931.751024 10782.716377 11816.637403 9843.775566 11456.339363 4580.399965 5437.135797 18568.759800 16694.290897 15463.133299 13356.567798 13924.736977 9501.985180 7849.254840 5518.709567 7626.320010 4790.020923 2458.692251 17041.791700 15183.858225 15880.730394 13605.774174 6737.752619 10929.419316 5581.018002 5594.027026 3657.547904 6770.070319 15530.027374 19745.319185 17971.563614 18034.982223 16310.498379 14684.328800 9649.189951 6856.670884 4644.606096 9472.376330 3920.842657 4771.060201 18149.838219 17131.992861 18720.310042 14565.118456 10942.693440 10368.133370 14816.374305 6710.224779 4036.865454 3167.106814 3547.682700 20123.081945 17176.780055 17933.327495 14539.753377 14816.892004 9482.935955 9807.750831 8996.363411 4913.066381 4146.186186 4784.039270 19035.636260 18183.812350 17066.130888 17838.244805 13333.031101 12394.588181 8190.744321 6464.897344 3325.676232 5739.514147 13149.889223 22707.700961 19086.946526 18407.795561 11877.595135 13506.522320 13140.383752 5070.638891 13042.260622 6978.040596 7379.857161 2521.678871 20261.084837 18564.118429 19394.898916 7585.369873 7643.445910 9816.001062 8211.351973 6258.098974 3382.761457 10018.688549 6629.463418 19018.932884 17061.140955 16086.351870 16843.558697 9048.609220 13132.456008 12008.546768 3966.739327 7241.885395 12194.419001 4659.000678 21453.232182 21742.022655 18323.590307 17158.743231 13572.955969 10152.790267 6126.567044 16460.480863 6379.285803 453.383058 2351.062954 20615.151951 21009.915814 18645.028950 14560.336845 10333.476743 14650.521673 16746.902895 7757.671965 10704.119594 5750.956840 5476.482677 21363.523959 20235.130087 19676.654290 16848.827639 15568.237795 14437.058115 14896.417238 9436.272873 10444.995116 6107.518830 5241.884463 21468.617078 17915.398255 22115.683160 17457.454974 15649.859582 14471.034720 13280.164749 14444.686570 10216.398175 7408.289874 6011.021138 24384.164439 22203.990045 19222.065432 18141.708838 16902.963056 13866.983166 12403.165566 11227.523493 7167.583750 4428.144482 3405.047686 22732.759753 21312.517970 20926.818120 19866.444293 17943.813430 15906.549824 11867.074893 11526.531341 10681.994224 11891.827336 4200.616747 23420.626282 24125.277580 20029.534121 19617.597980 19517.435498 15986.752337 11582.698005 10998.418935 6420.838851 8363.423843 3978.185572 24162.632568 21333.247275 21110.730922 20706.065352 13168.543810 8984.618848 8409.390341 9265.753966 2837.437556 3587.321485 10048.639446 23709.034793 22795.634090 20002.470431 18022.121963 14995.894917 14321.527385 11458.223295 6558.000882 6558.061415 5762.642821 4417.690521 23093.821483 21911.145716 20746.877403 18285.039163 13509.655468 12540.081643 11878.721788 8618.976698 6734.217658 3868.703057 3407.129801 23353.321784 22871.212423 16360.595688 15766.700091 18718.578335 14184.759959 16441.092535 13063.312994 9348.737871 8734.249620 4233.938030 24465.829616 21319.940810 19050.481549 19485.489906 15509.551024 14831.846898 12864.327315 16822.236237 10299.061395 4545.975945 4739.443201 23890.958240 21768.254585 21776.148546 18367.405195 16785.970165 16568.392670 16521.728463 11715.052739 6549.899112 7011.490183 8452.691152 21944.195074 21853.868931 18922.938533 22376.902701 18470.731724 18701.030566 9558.930211 5578.091248 6685.882440 7038.474023 39133.131843 25215.625536 22394.209721 18120.862448 19751.854156 20176.786953 17619.130920 10443.446654 7705.645995 11902.692795 8911.435627 5304.978681 27004.927698 27231.044265 21041.327166 20111.107917 19850.280853 16178.342403 20263.143675 8842.948679 7809.140335 3569.246774 6852.851903 25118.112479 24232.642562 23832.449350 19698.471605 21958.378035 17987.720633 13595.315278 12643.203075 4525.277511 4069.903289 3681.319156 27198.745177 22397.624105 25667.717557 22234.284378 17984.013983 22045.829589 16044.910471 11909.179725 12634.382675 9122.737901 8798.419112 26051.621781 27033.484394 24397.120075 22251.308534 19592.981392 18456.889874 13613.373694 13048.020871 8018.865309 4446.362861 5195.343276 26790.027886 27432.164405 25137.073908 22791.746169 16055.867424 18332.100187 15706.583901 9742.804684 8088.855163 5714.262250 16499.344402 27284.220898 23138.766821 24050.991040 21710.109370 15971.781548 14104.117606 10122.194223 14418.296313 8282.214023 8581.005198 2028.654106 26636.190615 25901.320029 23443.367660 22238.749586 18792.878773 13074.136395 16397.410075 10163.317874 10222.307769 5243.746016 7166.543137 27806.550176 25803.727681 26220.788379 24923.022779 20114.547251 16004.897192 17295.593226 9985.058760 7715.190021 10583.388208 20646.007998 24406.958410 27755.062765 27761.543505 23827.033191 20041.224482 20640.719570 9211.138354 15291.419262 10334.681263 8731.358749 1024.529056 28525.569266 25188.548917 26532.964153 27771.176823 21513.176522 21865.733095 16952.497641 11630.945529 7850.239659 10177.312952 7125.945280 28340.212527 29152.851965 29358.238236 23243.982921 17996.655870 20991.554906 18655.959164 11999.140465 13458.341375 6511.433654 190.616643 28686.890146 27967.331625 24626.967271 26850.394460 22427.635592 21459.329604 16433.871973 10892.645413 8257.405935 -554.963271 6193.073116 29466.665936 28391.085777 28069.719673 21105.666626 22705.355573 18446.124710 17452.654987 17313.951341 9288.010625 10019.698512 -1179.936618 29347.552338 28450.024903 24328.941764 27906.993845 23617.915619 16071.372302 20182.039238 12157.894633 12515.959276 15645.688987 1417.242331 32098.970232 28123.635926 29244.570738 30575.447139 22533.963512 21406.325726 15768.969611 14048.192776 10601.275990 7719.564520 376.999312 32398.336013 29898.254108 30768.252910 28000.666863 22522.543638 22418.067871 14192.783981 16581.190776 13510.082079 8046.635117 18686.648681 36606.216777 30395.359817 31187.419119 26956.845954 27095.460747 25525.171243 23300.605996 15357.843546 15393.835420 8148.169937 15362.902406 31482.405863 32110.897733 27805.170576 26661.286891 24701.005958 22569.621193 20211.604819 13176.312151 15272.451823 12919.949798 7353.188014 32529.585527 30188.560009 32924.950886 25744.161591 25450.730487 20032.258312 16694.991466 18487.181966 15928.035898 7727.492077 7275.140933 32905.584620 30430.925994 32268.121769 29930.152229 27496.247298 23497.762605 20280.057659 18457.831226 15419.681700 17084.170401 15702.421149 33119.389072 30204.909798 32299.576901 30553.509487 26501.829723 27181.911511 25511.743285 16847.145033 18796.976985 12070.864365 -6203.524157 32016.147476 31020.567684 33202.431541 29800.690202 28285.941719 25637.337214 21188.348596 16147.438156 15378.942188 12538.829207 24938.697254 32510.801639 35054.053774 33095.502671 30058.783351 27651.377353 22579.805327 22009.487178 18701.291475 19484.855513 13833.180727 4581.762234 33558.092007 33715.382369 30501.458899 29780.036120 26912.111296 23138.290831 22592.246073 20584.772110 7991.033852 20841.671530 19942.259156 34594.410544 32142.989730 32998.910442 31748.483270 24187.191033 22261.901312 22662.305114 16805.167773 16818.916385 19950.629259 11696.896197 35248.296493 33899.817217 29870.865887 31871.717363 26564.558033 30459.111156 22372.414769 17328.835596 20673.380075 4169.206489 -33107.396550 36444.933269 36915.032503 37584.602747 32428.282560 27359.714712 29682.329713 27061.239720 21409.294613 21791.451716 13002.248276 8098.407188 36551.722850 35691.647939 31967.271794 33034.879023 25191.825628 26733.402874 23917.633127 19626.816143 14279.021571 17356.073370 -1337.937238 36316.567883 33264.151542 37903.483791 32404.879650 30985.981387 27389.585778 23367.287112 24859.868946 27350.205893 17533.212988 10967.166316 36071.663628 34992.068252 31893.752150 38338.122319 27435.651680 29154.987321 22368.285103 23621.698392 24065.437499 14858.925534 19730.581243 35089.467133 33365.119843 35805.677948 33525.441657 33242.214998 27159.956199 27118.656322 24669.654941 19547.124371 7921.794839 28469.593067 38048.557493 38886.049817 34919.625902 35777.954566 32022.734860 28731.731055 29231.771068 26435.759507 22199.860388 22201.157761 -33107.396550 34500.329799 35396.722493 35732.111044 27044.765824 32754.802445 32226.950724 27382.893888 26566.724451 22623.535960 14764.734156 28093.275222 36084.904491 35511.752000 37521.365582 31528.375116 31952.279563 31789.957618 30217.262851 21746.096114 21050.680447 18577.153900 8477.991508 39261.572859 36424.808062 32935.949088 30171.336192 31225.553243 25180.090492 27917.970092 20523.305698 26564.119165 23998.420877 17000.753977 34433.407143 39033.983438 39234.891234 36066.144669 27357.128598 28061.022108 24419.413125 29432.647645 26308.337050 30389.722880 31315.565719 39776.740451 32275.953656 33744.180277 34247.784676 36303.212891 29995.085900 36255.666357 27295.379709 29229.811530 22737.506308 27729.012968 41016.599831 36219.365139 36650.573284 38659.447725 31786.723384 36341.514797 32068.341290 27356.696811 24878.918516 24501.539583 27652.098546 36201.355569 37660.870635 32536.246708 39993.973916 36998.920790 30997.248255 36735.842348 36129.276488 23277.085504 27916.740154 17338.422413 13420.941063 18007.472853 18238.363168 13419.972078 10015.437164 15217.997947 13189.974537 11035.737091 13711.338464 11598.283890 9636.783095 8978.112324 2379.874084 -8028.600169 14231.300588 9212.794645 15508.342880 14588.332622 4918.474680 17144.953569 9422.027327 7874.778076 14031.143976 3947.939017 11041.532565 5242.532592 1948.645809 7479.987019 7171.507676 11407.282809 9042.489325 4395.588575 8806.971301 5501.124208 10432.653340 7903.522455 11720.796010 7542.919239 3421.579486 6061.941551 7672.550551 4038.691403 10271.727589 9566.542082 12075.915758 10694.609685 7547.854479 9023.745296 10405.877558 10210.356030 5370.376675 8555.069109 7267.039244 5515.674982 3575.293155 4015.598790 10163.972447 13673.992576 8034.226596 6408.343598 12098.113790 7993.264817 8987.824138 10010.072265 5292.662212 1619.913441 5977.119164 3766.375234 4624.699460 -510.777786 8111.987020 11777.854253 7057.404365 15357.189350 12418.933961 11125.673837 12014.861334 4598.280184 4726.610583 6887.879638 6885.583227 3911.334358 7009.327806 1910.357052 15737.241510 2531.112017 7747.896943 5802.780984 3268.837954 7143.212683 9680.591821 8821.999109 5079.915394 5406.089952 5907.910033 4184.412529 2750.644166 2636.862900 7858.501817 6548.338531 6567.156624 9729.901404 7022.176721 11345.857974 6754.042634 4460.483247 1384.840846 3445.793504 3636.766888 5031.336861 3051.152769 3296.271429 10655.960256 10610.044832 4768.518848 3733.095926 10224.935612 4861.126571 5833.413980 4630.606123 3883.686841 6446.060589 4333.332978 4194.266816 1611.718058 1308.944129 5847.220871 6192.980823 9033.209060 5665.238554 8550.981948 3840.912354 6710.601377 4728.703458 8747.638363 5005.643591 1095.730534 2450.791547 1543.967180 1856.710168 2732.388021 5781.198253 9883.498163 6144.631196 4060.290932 3802.390385 3120.893158 7336.596116 6163.475299 4866.272012 7880.746667 3298.382016 4727.262981 3982.190757 6554.409351 2520.730845 5325.061985 10128.435177 3127.067819 5798.170924 2248.209386 6616.900350 3341.015410 6505.188751 3345.317699 9062.616447 2127.003364 2441.281448 2174.917288 547.246468 1332.724886 3681.253379 1976.929249 1263.220056 3548.693537 8752.051497 9439.586680 4858.402659 1486.778184 2076.698455 669.148624 2558.581658 1986.472991 1170.974280 2371.130944 2029.965353 3371.340719 1527.077461 1871.980729 5568.261964 1694.577937 6062.823886 4322.272106 1716.139794 1834.622925 2275.014477 2155.104842 2275.473079 944.796338 1361.988948 1452.652987 11.856840 5656.640496 2542.770136 1966.706977 1581.881828 1928.000270 1824.516714 766.787366 1478.271646
</DataArray>
<DataArray type="Float64" Name="Velocity" NumberOfComponents="3" format="ascii">