<VTKFile type="PolyData">
<PolyData>
<Piece NumberOfPoints="1945" NumberOfVerts="1945" NumberOfLines="0" NumberOfStrips="0" NumberOfPolys="0">
<PointData>
<DataArray type="Float64" Name="Pressure" format="ascii">
 17948.015081 17268.023817 18103.750126 17003.356520 18125.232122 17205.943601 17316.595852 16963.006726 16849.882629 16912.244834 18317.037203 18523.396629 16547.002407 16624.142211 17517.670365 18266.519725 16884.331441 18138.839549 17570.569758 18372.329409 18986.641251 19078.972289 20257.312366 20084.663879 19838.760647 20095.258087 18774.836172 19671.119251 20353.252993 20571.676775 21331.219210 22355.722753 21274.034559 21657.154390 21734.314734 21810.461037 23422.817609 22591.599019 22769.729749 21807.065965 26124.324151 24578.420606 22993.019321 21590.476173 26365.628566 26819.786490 21954.727992 22485.171761 24433.934202 25159.627744 20020.119408 21102.818375 23017.812226 22773.794120 25774.581926 25341.466557 23541.979029 24208.044882 24164.199814 22890.126178 28548.640512 28600.353640 23947.270915 24723.452558 24688.557263 23336.467479 30853.800066 27988.290532 26561.826717 24298.557977 25360.099101 24817.927321 28451.440193 26757.679554 27393.449586 24328.890606 26506.720571 24121.716523 27299.420044 24392.760699 30755.197173 29564.638385 24589.250292 22659.488138 29155.619329 27275.526728 26747.399576 25395.071812 25729.066714 25417.706789 25457.478114 24597.106556 26142.990477 23303.329610 26646.720619 25810.605248 25090.835579 23603.624417 25314.294516 25286.859089 19810.696970 22049.434089 19683.606265 21335.891781 18920.444282 19680.061164 18986.488694 19158.620879 20116.272063 19253.570700 18135.274669 17156.607575 21345.654289 21748.180996 20503.403703 19688.595618 23373.440454 22913.610810 21181.487026 20771.690382 23309.743738 21882.807205 23670.377036 22383.919958 23581.936515 21099.206293 22272.883542 19883.235688 27931.564454 26180.471129 20338.002724 19948.467755 23493.445019 22392.754924 19073.129559 17229.845084 22032.592784 23066.852748 14343.672811 15062.095201 20388.212561 19043.428635 23911.891389 21711.158239 18088.217768 18066.014787 20038.539657 19737.855874 22265.380646 21026.439266 20176.093511 19071.695748 21534.457731 20364.221874 22303.608712 19925.493743 21955.540597 20303.041377 22500.284761 20833.322886 20443.398187 18688.295243 22969.578145 22895.719464 19725.832694 19436.944573 19393.545032 18440.171732 19102.983433 18919.271719 17661.986717 16348.235243 20952.013295 18952.644333 20165.954702 18620.012407 19358.649761 19286.161499 17550.824808 18412.633128 17201.596904 19889.551665 16897.027061 19064.512907 17762.483682 18166.985650 17302.799165 19380.201741 15909.069728 17946.618980 18036.155411 19972.217143 18216.124735 19345.335053 17846.043506 18718.119085 16815.901009 18339.581897 15681.819206 18335.521052 13165.564671 15262.005704 13807.299966 15565.656987 14245.087401 15154.215877 12816.351189 12451.919917 11943.490111 11046.071287 16234.433229 15650.062520 14721.362384 12402.313705 10675.468309 9612.118812 8080.728095 5997.119702 3529.925544 1198.626558 541.201753 547.624580 360.086518 -119.253330 -2641.714732 -5887.491014 -6350.718575 -6402.259027 -6573.298420 -6663.627818 -6677.297438 -6626.632329 -6520.157007 -6365.810670 -6171.724216 -5945.964801 -5696.142351 -5429.122988 -5150.873395 -4866.412920 -4579.845466 -4294.445296 -4012.773706 -3736.806928 -3468.060038 -3207.696424 -2956.617121 -2715.528261 -2484.987871 -2265.435133 -2057.206149 -1860.540436 -1675.581989 -1502.378145 -1340.878667 -1190.936902 -1052.315499 -924.706795 -807.828799 -701.954777 -611.366920 15224.213306 14384.586857 14240.216022 11743.406867 9931.663603 9251.934829 7844.334069 5693.387672 3624.259316 1025.249057 1129.247136 1119.035478 483.255562 442.700787 -2030.243397 -6001.018470 -6478.885763 -6308.565086 -6540.747163 -6644.734881 -6663.397285 -6615.116213 -6510.402425 -6357.729454 -6165.290461 -5941.097546 -5692.700921 -5426.928640 -5149.732117 -4866.133521 -4580.252185 -4295.385323 -4014.120368 -3738.459493 -3469.941160 -3209.748236 -2958.796825 -2717.803850 -2487.334417 -2267.831851 -2059.634309 -1862.982050 -1678.019173 -1504.792966 -1343.253214 -1193.252817 -1054.548965 -926.795297 -809.464063 -701.330172 -597.208760 13117.272616 11841.209601 11378.616224 12392.722073 9150.612731 6314.284243 7436.793188 4678.617725 3436.311539 1657.493933 -80.106242 -560.494097 78.347961 1848.309542 2592.156898 2147.624349 1541.300985 911.202976 396.720936 15.397515 -269.615541 -499.596036 -702.188448 -889.885480 -1064.378036 -1221.553334 -1355.305911 -1459.912293 -1531.269437 -1567.376736 -1568.362983 -1536.259357 -1474.641811 -1388.216609 -1282.394511 -1162.883945 -1035.325162 -904.981737 -776.500764 -653.747705 -539.716262 -436.508140 -345.372878 -266.794561 -200.610532 -146.147144 -102.359022 -67.960110 -41.533836 -21.581257 -6.353960 10652.070341 9845.602645 9116.789245 9111.628172 7794.808161 6363.187271 5892.734394 4596.716974 3466.673071 2258.568005 1220.146226 695.129843 899.941010 1648.941710 2145.309039 2025.700883 1513.228761 922.888629 419.374120 34.669926 -257.371028 -493.028366 -698.679535 -887.228977 -1061.224985 -1217.320488 -1349.936009 -1453.650146 -1524.498933 -1560.515923 -1561.801640 -1530.324432 -1469.580466 -1384.190575 -1279.482089 -1161.087441 -1034.582205 -905.179168 -777.489808 -655.359221 -541.774928 -438.844670 -347.833622 -269.248181 -202.951753 -148.297911 -104.267799 -69.601784 -42.922754 -22.881241 -8.535929 -547.530573 -518.276307 -525.057826 -497.445414 -467.678201 -452.470219 -398.507869 -396.738009 -342.303855 -342.572248 -293.574156 -294.132211 -250.989054 -251.544316 -213.843570 -214.350878 -181.564353 -182.019095 -153.627064 -154.031530 -129.545138 -129.902872 -108.869074 -109.183866 -91.186668 -91.462322 -76.122745 -76.362984 -63.338259 -63.546666 -52.528881 -52.708861 -43.423194 -43.577941 -35.780604 -35.913083 -29.389087 -29.502025 -24.062835 -24.158716 -19.639891 -19.720960 -15.979818 -16.048091 -12.961449 -13.018720 -10.480750 -10.528607 -8.448820 -8.488658 -6.790036 -6.823074 -5.440359 -5.467657 -4.345796 -4.368270 -3.461020 -3.479455 -2.748136 -2.763203 -2.175594 -2.187865 -1.717231 -1.727191 -1.351440 -1.359495 -1.060443 -1.066936 -0.829671 -0.834887 -0.647228 -0.651405 -0.503440 -0.506772 -0.390464 -0.393114 -0.301969 -0.304070 -0.232861 -0.234521 -0.179056 -0.180363 -0.137291 -0.138317 -0.104969 -0.105772 -0.080030 -0.080656 -0.060844 -0.061331 -0.046128 -0.046505 -0.034873 -0.035165 -0.026291 -0.026516 -0.019766 -0.019938 -0.014819 -0.014951 -0.011080 -0.011181 -0.008261 -0.008338 -0.006143 -0.006201 -0.004555 -0.004599 -0.003369 -0.003402 -0.002485 -0.002510 -0.001828 -0.001846 -0.001341 -0.001355 -0.000981 -0.000992 -0.000717 -0.000724 -0.000522 -0.000528 -0.000379 -0.000383 -0.000274 -0.000277 -0.000197 -0.000199 -0.000139 -0.000140 -0.000093 -0.000094 -0.000055 -0.000055 -0.000017 -0.000016 0.000027 0.000029 0.000087 0.000090 0.000177 0.000181 0.000316 0.000323 0.000540 0.000551 0.000900 0.000919 0.001482 0.001511 0.002418 0.002465 0.003922 0.003997 0.006326 0.006444 0.010147 0.010332 0.016181 0.016468 0.025632 0.026073 0.040300 0.040969 0.062828 0.063827 0.097023 0.098495 0.148264 0.150395 0.223977 0.227004 0.334157 0.338373 0.491884 0.497627 0.713717 0.721354 1.019818 1.029700 1.433550 1.445942 1.980245 1.995222 2.684730 2.702018 3.567132 3.585905 4.636457 4.655085 5.881460 5.897204 7.258410 7.267113 8.675597 8.671428 9.974638 9.950271 10.908409 10.857786 11.110997 11.048635 10.029392 10.106993 6.501966 7.896167 2.131327 5.216212 -0.025212 3.480980 14127.522256 16679.695198 14059.724021 17070.570422 17751.727849 10488.676750 13434.364032 15478.813588 13048.398412 10897.761134 13661.276864 17582.871145 15778.048684 12147.946382 17095.860150 10521.068005 7964.081304 12231.798171 14437.606707 10604.927641 13336.693232 10544.353166 18503.162584 15510.153548 17099.397586 18604.096606 14490.418934 17746.600919 10168.853001 14089.347740 13124.723694 4750.690830 18528.998487 17275.848037 17473.514307 18512.037874 9603.611407 15664.156725 17818.511157 13213.413115 7239.772228 14723.778414 9923.291570 15917.039364 15125.481442 6876.408596 16613.600762 18962.932998 19733.790335 15901.242290 17120.974640 15651.093986 6374.585696 12255.469120 13724.692387 15922.685059 19715.552566 19031.917342 19793.132537 20072.594028 16562.111043 19291.831302 19419.051943 16033.833907 13777.623483 18352.879755 19438.943234 18450.350642 20487.812812 20183.262451 19077.001995 19436.000206 17563.108384 18174.878478 16983.611150 16374.710026 8979.554566 19378.382722 19575.435394 22507.686184 20055.541214 21134.090648 19205.881033 14528.197562 19754.866737 19462.076062 12535.493189 12726.856230 21754.827704 22238.548822 18833.952710 19778.186507 22127.057301 17503.915146 15406.511470 18895.025571 17484.910935 11543.541410 16353.693350 24049.619056 20476.403659 15560.350160 20705.176260 13122.175754 22296.741093 14546.653840 16927.319361 18965.902672 6260.692225 13419.472401 22245.260452 20162.780368 22118.859976 7418.497881 21146.632580 14088.087165 19851.945292 9223.646077 11185.498444 8107.509150 5630.807432 21807.075968 21704.512286 13449.347077 22536.226360 8287.733957 17049.365445 13683.230514 15018.272680 16247.123976 17064.663064 14608.365982 22996.910163 19840.769653 22351.979306 19228.289726 14515.635562 18554.688664 16181.056801 12289.212401 22294.098005 21337.682113 14283.187636 22348.728093 20503.453061 24397.171554 24206.206006 20720.725187 20017.772641 18434.732302 16167.912899 19603.626390 10564.783252 11136.834578 24804.329954 21219.518354 24032.968185 21512.437153 16963.810998 23065.946373 13905.725580 14749.209593 5387.262231 9980.696623 8712.728560 26080.905138 23886.071441 23864.269824 17413.447130 19090.941059 13105.382586 13202.112323 8908.091377 4450.219184 3695.756491 4245.751241 23302.842631 23778.118416 20715.636943 23185.845087 20928.491890 19638.635565 13926.482643 16287.986663 9704.626149 1520.616403 3208.988672 24293.876320 20440.659607 21013.678104 15953.041374 13865.885814 6930.561983 3828.684638 6415.901944 7064.821274 6299.489497 5006.443406 23830.907435 23290.548862 20721.544700 21022.408550 16528.231616 8478.302474 12234.248588 7569.576100 5943.782504 4168.691600 4347.205303 24979.788042 21760.797550 23935.691398 17512.255228 11405.383772 9976.618310 9699.593067 8634.000008 3421.652514 1879.915942 1889.601571 24583.542419 22622.824711 21689.795110 18338.215910 11714.819874 7768.795663 7040.762664 6636.496403 3503.085977 1991.450331 3859.782952 22477.268933 20782.502342 17997.289656 17185.372957 16706.222657 5770.923349 7726.085917 4155.031495 4097.231340 5310.869499 2506.718435 23947.386844 22438.710759 21084.229478 12764.278619 14663.986960 12757.274156 4532.084589 6712.310466 5298.702903 5074.264915 2326.575706 22789.265696 20059.572148 17169.156909 16908.181341 7550.229588 11069.107479 13372.637461 9784.865174 11110.482277 5559.049393 3977.641382 20492.967363 20096.883614 17759.985810 16899.295421 14232.885652 16326.949065 9848.867620 5154.355149 12021.406076 7670.934117 5375.155399 25321.072931 22233.954661 20450.129276 21685.024104 18475.152329 10817.695999 10234.471301 7485.935972 10970.876037 8613.038552 2327.735916 22835.342061 21115.283891 20590.916900 16435.210093 21742.415949 7074.453680 13679.116734 5718.994065 6609.894173 3139.775127 3312.717715 21518.051153 16793.655565 13871.970377 17579.954402 15167.948437 17643.819127 11593.293616 13784.264443 3327.317814 4283.814960 7489.249177 21517.124816 24703.733602 19261.458889 18302.924187 16936.901172 12018.991542 7763.923550 8200.520989 7600.871169 8045.762862 2690.780882 24005.195964 20627.439714 15156.306089 13175.670312 15650.969815 9221.853389 11856.478768 7892.130352 11013.219792 8180.651682 2280.757691 24435.755358 20852.721937 21872.168259 16494.762931 14580.004950 6796.967459 11611.414420 9989.065072 8721.511267 5446.351442 4995.326828 23549.939559 22282.489399 17590.017772 18543.124521 18362.725820 16247.290359 15452.575234 8821.813942 10697.446203 7398.102951 3355.775914 22615.885192 10858.171611 17237.190576 16544.291647 17374.797922 14603.315920 7019.375452 11867.736751 5484.380648 6718.189979 4474.603504 26096.160114 22577.271847 21931.728253 17839.204660 14450.263373 11256.343636 12926.111192 10361.509290 6395.131278 3284.364774 4835.847696 22381.449925 21504.508638 19381.002140 16436.648231 17201.499266 15346.035482 11670.097379 6999.372291 3683.412382 4213.138523 4214.914961 24654.710948 22416.633560 20307.899869 17829.345730 16456.350619 14858.692799 11273.476351 12608.138874 6373.755912 3463.417438 4008.656588 22587.524399 21617.132865 16309.551061 18317.023185 18329.972909 11535.755974 13277.449103 10951.925009 8697.026561 5056.869929 -2467.861457 18508.892112 20831.125156 20221.105398 17554.508653 16646.889285 11084.324522 11615.749117 10454.087549 13858.893874 4654.036878 4896.967173 24322.928264 21577.536059 20672.512005 13667.686839 16106.149603 8961.823165 7518.257422 6483.056467 7674.551351 4537.921525 3785.617429 21584.499481 17821.582769 21565.656623 13984.521839 5783.726625 9565.224782 6013.436015 5808.468870 4454.202896 7715.103910 1176.681653 24423.017285 21972.635781 20753.137976 17764.375525 15375.177704 10014.268456 7433.478288 5655.891572 8593.291620 2080.687335 2712.778743 19433.343997 19890.584931 18277.728558 13881.078182 10546.602717 10238.340770 14609.040209 7030.632981 5540.321003 2990.280663 4770.702650 21794.373065 20745.661275 16417.650022 14722.968435 14242.515407 9852.163086 11202.679857 8924.233483 6670.222159 4991.809093 5747.658362 19192.191904 19469.787051 18979.071855 17388.180967 11083.907365 11261.472616 7825.603744 7382.214588 5885.132413 5090.886280 5856.198292 20911.724393 21541.890273 17951.507156 10705.050033 12276.282581 11440.433356 7283.717069 10743.587869 6231.718077 6794.512496 2352.113072 21147.002146 18745.362875 18534.842034 6048.732607 6633.384020 8324.954872 8771.836042 7136.708207 5344.430200 6073.660988 7462.854634 20158.625565 15297.163677 14154.813050 15794.232592 9003.505648 12421.116655 11917.099442 4690.462011 4632.721015 8820.937418 4756.295016 19377.842655 21507.860986 15823.079818 15302.179424 11953.190636 11415.936680 6128.880561 12996.739971 6662.653728 2363.131290 3039.497961 19451.845196 19794.393696 18960.196992 14016.384856 10029.555962 14533.081835 13686.136268 7238.139955 7850.684832 2408.883029 3717.268096 17508.623263 17371.437216 17775.084280 14297.716505 12985.313319 12010.800229 13412.377492 8082.797521 10392.445270 4098.292110 2357.396654 16453.397977 15347.221551 17141.777749 14478.324075 11629.379079 12179.968962 9689.089171 10394.977466 8605.637452 6502.171763 5151.070670 18708.913535 18214.820021 14762.517128 14438.016829 14130.012249 10917.792598 9973.602887 10275.504549 6247.371175 4055.933181 1719.338237 19299.985443 20300.824769 18819.411478 15580.113714 14769.102111 11874.438681 8648.782653 7532.845804 9564.224496 6363.112027 2651.857910 18137.706945 19615.352934 16957.318752 16172.878781 15777.017509 12277.621818 7857.700553 7917.619077 4760.709291 4409.179747 2959.229331 20401.613565 16941.966060 18262.045031 16152.288281 9638.843649 6760.890576 6524.706437 7603.573332 4480.956746 2521.876101 4560.079424 19769.664507 19812.177615 16839.718835 14468.580519 10972.955906 9983.256647 7074.969166 5083.643523 4036.134380 3900.929460 3429.772918 21320.949855 19296.568708 18279.895207 12373.041218 10007.211125 8023.272041 8696.405175 6583.812458 4825.675294 4216.739392 15.128904 20213.799567 19351.561772 14471.060752 8540.177571 13833.224908 11247.988171 9875.608468 8016.701182 8175.926199 3964.266650 3101.521689 21910.470795 17606.588809 15787.931660 17219.248823 12467.931190 12070.633454 11296.587592 14086.455331 6243.158274 4091.428850 5373.946260 18576.474959 18155.179728 18727.234569 15375.358245 14569.800191 12960.831211 8972.210253 8995.861551 4224.211173 5842.114017 5402.808833 18642.085692 17364.979288 15381.147316 14680.657876 12562.907688 12480.436079 6606.048660 5282.758572 4224.842938 5720.815806 4275.574242 22399.606801 18377.878918 16587.465795 12358.130327 16313.846507 12555.128512 5942.699440 4274.095032 7395.653418 4428.746552 3133.255158 19267.486369 20014.857105 18084.389794 14481.475186 14418.238695 11641.512509 14524.882124 5865.994684 4844.577634 2211.576591 2358.026235 22431.544397 18243.552607 18744.864803 14206.204423 14777.230615 13166.066905 10053.135150 9673.169920 4712.078050 2911.896004 1555.528100 17685.985585 18042.126267 16753.163314 17748.119900 12223.250063 14790.914971 11126.689579 6985.321151 6814.673691 4535.746571 6068.567326 19042.760401 16229.754372 17566.899523 15716.496238 11648.587027 13941.853882 10091.276793 10669.480787 8685.109435 2407.200275 3636.551176 19931.366998 17550.907068 18627.742922 18105.972347 11685.436232 13330.057469 11281.579468 5809.008931 4613.266692 3958.502391 4997.122644 17350.414789 17391.749673 17168.232979 14902.029732 11656.176184 9439.740791 7530.216391 10110.593483 6466.006025 5510.576720 2229.955782 19453.439039 19385.934172 14311.531766 15174.852263 13998.280509 8831.101753 11935.445835 5711.914953 8362.668149 4402.872093 711.777550 19449.233669 17989.898967 18541.547523 18261.777693 15879.440575 10744.379440 11335.329382 7071.847015 4716.035178 7293.456819 3286.124875 18262.437595 17909.760506 16906.403566 17654.605867 12973.937090 14343.885074 7624.113574 12364.955041 8015.578503 7834.284083 2394.761975 19035.583407 15193.996080 16939.731198 17424.187051 15690.258065 13755.364035 12187.369133 8216.753877 7573.567525 9630.500981 4893.494563 18087.035593 16721.631554 20792.747377 16287.562161 12204.065327 13920.532279 13264.841851 6565.929930 10205.498671 5836.234591 -1045.650813 17736.158261 16903.877679 17163.443930 17581.421012 16038.444109 15759.395875 13005.386260 7389.660552 4071.884948 3115.163469 -582.333725 19839.976513 17801.352946 16599.311590 15829.555221 17091.522661 13483.294417 13692.443732 10219.254871 6318.514365 5412.930288 -762.088412 21204.351343 20297.085414 19226.363632 16928.302705 13678.638449 10961.642330 13212.157178 3239.102889 5122.722305 11455.886408 476.691105 20022.630857 21089.340767 18749.809057 20844.677723 14531.169408 14660.880452 9661.457691 7828.124710 8544.195268 4622.423436 7577.353786 18001.124804 17139.857236 16432.948629 16648.595885 15855.078205 14173.646446 9427.087479 10298.312518 6055.672905 4046.343605 784.392794 20007.437358 17892.881414 20137.988150 17702.820727 18214.731148 15629.856162 16188.042562 9936.824289 10783.841969 5659.220281 3862.278357 18062.391993 20565.265189 17423.851558 18142.381908 14708.346693 12688.509175 13053.492283 6821.770339 8908.649525 5414.173673 9233.928304 19920.391463 19171.254114 18930.770374 17984.394936 16000.516846 14233.146098 10085.076664 13725.840022 12186.557999 4089.915096 3082.646733 18048.470210 19381.460378 18927.599525 17757.135756 17338.396885 14796.412066 13754.569230 11936.398557 8651.673164 8976.021887 5423.308015 18334.497735 18759.550530 17647.048010 16975.227756 16835.417202 15047.404460 13315.352882 10143.454449 11609.106907 7653.087442 737.383526 18116.780341 16391.181128 17636.413185 15069.158398 16228.521946 15330.278982 11779.881415 13068.819825 10047.791252 9137.325090 3816.959517 16811.751880 17298.750093 16794.411983 18007.411388 16760.466568 13502.342114 13988.067448 11606.279032 11305.647418 5737.780975 3796.534616 18338.482209 16798.744523 13860.725663 16217.877316 14178.633970 14529.243464 12553.436709 8311.218421 3163.379326 3207.334147 8550.238358 15921.451654 15551.467165 16169.399674 16541.052935 13732.429609 15295.225823 14010.741123 10876.564875 4829.639352 8405.137246 5422.583619 18662.056739 15829.681507 15337.482426 16135.624573 14278.606932 14062.580038 8879.883822 9232.279143 8832.021568 4412.313297 3968.252844 19544.008397 15675.387350 16299.613936 13235.108625 14243.421589 13427.092593 11509.216464 14291.325990 9909.451647 7209.045726 4724.846884 15444.273160 18650.341206 13364.309533 14296.843294 10967.055958 13957.851414 11494.489138 9925.326324 8573.785812 6348.750859 2108.473630 17740.119544 17105.953296 15327.441089 13456.518330 11631.885248 10085.870359 7320.004494 12136.520636 10088.837816 9091.893540 1342.504682 17346.374052 18775.866522 12779.401040 18962.484221 14165.768092 12972.980861 9296.745014 8206.257594 6089.193237 5185.933369 8850.598646 17411.056445 17660.231451 16027.290440 17089.392391 18699.355270 9411.676069 12317.896960 10578.789811 10160.446635 2125.601507 4415.585907 19052.904987 17206.612461 14511.160529 13072.337508 13531.869937 12606.784437 6310.384960 10719.339168 5953.925097 9573.637905 7715.679237 18564.323018 16838.134922 13409.702810 10641.377548 13892.784515 11643.672643 9145.000200 6231.985476 7990.690654 5315.665919 7414.806519 17686.212628 15198.654665 14772.989879 13286.558194 12150.390378 10062.505086 6303.714424 7855.621175 6977.178172 8642.642905 110.777208 15234.989165 15914.713377 12747.249062 8446.199786 9906.642386 9251.081229 10745.862531 8203.386613 5963.883217 6934.475555 -1392.372811 15413.795687 15555.107921 16759.929653 13959.434065 9153.834139 6640.818265 9097.120025 7709.417393 4511.282813 4882.309246 7814.434117 12227.440931 10819.366975 13327.050338 14235.292881 13562.079946 9765.497506 11727.841241 5187.588402 6631.535399 5880.334410 4847.965758 14979.839754 14173.002733 18307.469395 13511.174553 11212.069961 15781.769199 10311.049414 3547.153072 5780.011046 6905.193795 6028.304383 13942.847249 13800.368809 11957.954250 10768.878439 12764.364378 7416.055423 11727.432359 15470.159584 6412.999236 5648.334596 5535.019143 11574.890333 16380.562740 16594.830852 13933.563236 9941.235599 14333.226942 11246.027120 14699.369020 14550.093899 11483.056706 8423.674625 8072.659384 5634.841539 -5323.957728 14909.232713 10086.629241 15320.827141 14401.914941 6736.261356 16656.917525 9104.179948 7653.017119 13322.075528 5801.717667 7335.530782 6172.518166 2481.147819 7636.787542 7340.914932 9803.335259 10041.863320 4863.757343 6338.859632 6002.624593 9048.294604 7879.109169 12774.225438 4771.015942 4996.479261 4186.691813 3585.311633 3350.438026 12525.828200 8100.721653 10082.790610 11686.242786 10655.343863 9104.560170 12233.156307 10004.076802 4705.788591 10821.175908 8885.045558 5617.664942 5553.858379 2999.508660 14721.989674 18332.672932 9387.687218 8158.433995 14401.673450 10219.517226 11038.923776 9836.646550 8597.701350 3617.120688 6837.501502 6036.608573 4140.696601 1776.338913 10958.883919 17632.260467 9384.750773 17945.742689 13333.758719 15589.115593 16009.645571 6986.546774 8634.718535 7771.568647 5557.403166 6765.269913 7994.738092 2043.259269 20476.729695 4744.650104 10362.521974 10906.085584 5180.168263 12990.983673 12317.407694 14049.538177 8491.920693 6179.353222 5572.521216 5868.246621 3255.688307 2773.049252 10403.044131 9620.074329 11762.323840 16632.104944 8635.951331 14096.105591 6484.836895 5990.004528 2853.629247 5849.815567 9126.080887 6855.040349 5134.645242 3005.292871 14436.591118 14943.774778 9802.662676 2225.862599 11031.710515 5882.559622 6672.525963 4965.134035 3794.738554 7817.985720 8374.786328 6490.260030 3378.636713 2817.110840 5583.350104 9602.209587 11563.386523 7571.457086 10281.583203 4521.664735 10571.151414 7254.078269 13519.864391 4316.734692 1944.278269 4334.634976 3863.697737 2214.194949 6365.134834 9325.749823 19697.336323 14357.694581 6263.152590 6361.597742 6354.228550 11978.693160 8425.919306 10607.488298 11600.850073 7887.543557 4361.530696 4371.656975 9187.888854 3991.918166 8960.817054 17730.987814 6768.125323 11484.512294 3879.334872 13920.986821 8098.167947 9362.787215 7802.328315 14184.451703 3034.713136 4105.927024 9573.789957 3364.364552 2966.046127 10247.330366 5447.171058 5349.342616 7851.672693 16595.809945 17225.704535 8593.663765 4159.258661 3772.177814 1128.583892 4369.470836 1676.362185 7353.340888 5779.054684 3603.638579 5046.682733 4727.517928 6549.336302 10361.464438 6867.751336 10521.584258 7067.204405 1279.214901 4523.410186 4569.311678 3361.329632 5874.692639 4860.084859 8728.393615 851.238518 6226.896835 6912.462271 2747.284678 2336.267495 2814.005323 5046.414009 3685.662373 4194.150190 4579.318313
</DataArray>
<DataArray type="Float64" Name="Velocity" NumberOfComponents="3" format="ascii">