<VTKFile type="PolyData">
<PolyData>
<Piece NumberOfPoints="1945" NumberOfVerts="1945" NumberOfLines="0" NumberOfStrips="0" NumberOfPolys="0">
<PointData>
<DataArray type="Float64" Name="Pressure" format="ascii">
 15455.567204 14557.425827 16130.679862 16080.663117 15371.880760 16217.067058 15609.343238 15593.314065 16766.337309 16517.716244 16278.702300 16503.922817 15406.745028 15530.252562 13959.006373 14762.958902 13606.789570 13528.740744 16962.787574 16917.846797 18630.302572 18535.948181 14540.889418 14066.013537 13280.759336 12671.510668 15449.251562 14680.045574 15337.518629 13261.521652 15431.368791 16494.424926 12870.419371 11536.677568 14098.213914 11766.308687 15120.620116 13994.965804 12981.028028 10785.220687 12686.200712 11934.940623 11844.440192 11409.134987 12622.322304 13391.205826 10421.806467 10565.172198 12945.025853 11317.041128 14274.293645 13316.010706 13043.353348 11826.969979 13484.105427 12758.282548 13887.346838 12989.753908 14923.071433 13330.021755 16560.581693 15012.173812 17586.786235 15435.951254 17688.858829 15541.745055 17940.969379 16733.177191 18561.338958 16799.137203 18750.223664 16632.423484 19487.740316 18626.142386 19385.134899 18413.519051 20368.968347 19759.967615 20264.827396 19904.231131 21045.209712 19649.488097 22908.065789 21650.988412 22800.560778 21862.075104 22607.192108 20914.567608 23177.091411 22986.387555 24799.842518 25070.696850 23509.709240 21796.500440 24195.223137 22446.170450 24868.337913 23972.217186 25940.312406 26187.449878 26651.351443 26179.007892 26102.268609 22975.508789 28459.044135 26789.775839 25565.172999 24401.357856 26936.780354 27387.908107 24699.113506 24040.372318 26305.899290 26165.194177 29619.062366 28716.952336 30716.238540 27908.511308 29310.794618 27432.674706 28361.931911 28089.365891 27309.407014 25028.811250 27285.968115 23985.516147 31038.929547 29076.669317 31990.943740 30160.871301 30454.290488 28949.065349 30660.037922 28776.950604 30272.043983 27585.064740 29985.638806 29677.947725 33173.936441 34129.892638 33630.879399 32186.694365 33099.965464 30040.854398 33978.563662 33357.050218 31505.167289 30184.708638 31535.295176 29702.401485 34151.929194 32881.950517 35787.567791 33006.444116 38026.100185 36800.648518 35468.819683 29754.079529 42556.414409 37879.628458 33096.749516 30186.507195 39445.712281 38670.851399 32815.200524 28699.107724 35225.345669 33739.485774 33074.616579 32655.841914 39433.902980 39951.363727 34775.093043 30072.940055 36361.779159 36292.968899 33390.633046 33490.943072 35538.551751 37519.402337 32681.756235 33978.456080 38187.762324 41115.917561 39920.513510 43239.230368 38371.870074 40724.616812 35942.948887 39065.100518 35568.055096 39050.802482 35684.187512 37316.936152 35477.246047 39371.108207 35521.576705 40569.984542 37243.162609 41511.158521 37935.984960 42558.310746 36708.924577 41728.623391 35502.946306 34743.702812 40026.027048 40142.257985 35232.664204 38017.118189 12987.098839 12894.633707 12191.321402 9932.287767 7559.064971 6219.623319 4395.865388 4585.202982 3688.930544 27.451205 -2010.117412 -936.763969 447.752724 -430.475950 -4963.851517 -5379.486591 -3979.090214 -5777.976463 -9927.503712 -9585.525892 -8543.248331 -8192.289348 -7818.012233 -7434.630791 -7034.074409 -6612.652923 -6171.898204 -5716.767163 -5253.966459 -4790.780553 -4334.315105 -3891.029246 -3466.461908 -3065.090566 -2690.283884 -2344.323298 -2028.475508 -1743.101080 -1487.786021 -1261.484567 -1062.663013 -889.436472 -739.692604 -611.198597 -501.689668 -408.939018 -330.810849 -265.301562 -210.591973 -165.236916 -129.346101 14173.504175 13403.068755 13072.369887 10268.251189 7984.147576 7767.201311 3743.838659 6752.231585 6233.521723 290.296615 -2497.454863 -874.769774 1128.009566 40.990067 -5887.863040 -5808.913994 -3144.741207 -2386.872109 -7384.715751 -9287.443607 -8377.092066 -8140.208134 -7806.377686 -7430.096419 -7030.479126 -6609.549031 -6169.719973 -5715.857826 -5254.463141 -4792.659702 -4337.449781 -3895.232925 -3471.518955 -3070.777203 -2696.382756 -2350.633573 -2034.819585 -1749.328540 -1493.775283 -1267.142640 -1067.923791 -894.257981 -744.053616 -615.094971 -505.130658 -411.943581 -333.402806 -267.495858 -212.323162 -165.927113 -125.210401 38145.980164 39950.969016 37806.445507 36849.342937 36098.272305 33190.875375 29428.772894 31211.738706 32359.650871 27402.390363 26432.125276 27010.503306 29859.394082 40102.974466 44680.790716 34777.431678 20800.191050 -5022.680636 3241.571425 36698.396099 12816.360298 2441.260684 1150.357619 674.894322 458.052349 334.785860 252.773054 193.403645 148.704950 114.449048 87.982483 67.463595 51.543706 39.205359 29.666680 22.319288 16.685793 12.389654 9.133185 6.681079 4.847743 3.487352 2.485911 1.754845 1.225793 0.846368 0.576715 0.386721 0.253733 0.160532 0.092774 37749.844444 36520.585849 31831.487702 29673.177033 27845.246793 25349.315226 23289.815251 22761.046521 21730.008474 19464.077444 18902.624998 18713.792424 19773.736873 22167.126778 25605.100810 30430.617867 31814.943614 28020.383011 22347.446055 14437.188409 6720.522533 2868.556311 1354.800085 754.485947 488.194862 347.152726 258.752466 196.881962 151.029556 116.130788 89.248786 68.436371 52.298841 39.794732 30.127731 22.679961 16.967439 12.608874 9.303062 6.812011 4.948038 3.563657 2.543538 1.798025 1.257874 0.869984 0.593923 0.399122 0.262639 0.167555 0.102927 -105.600370 -94.953073 -99.020278 -89.317970 -81.713473 -76.719565 -62.308819 -61.834326 -48.327933 -48.489655 -37.450558 -37.673279 -28.901727 -29.096138 -22.196633 -22.354932 -16.962474 -17.089045 -12.897984 -12.998340 -9.758599 -9.837662 -7.346677 -7.408596 -5.503484 -5.551696 -4.102358 -4.139681 -3.042879 -3.071608 -2.245938 -2.267926 -1.649603 -1.666338 -1.205695 -1.218360 -0.876959 -0.886492 -0.634766 -0.641901 -0.457245 -0.462557 -0.327790 -0.331722 -0.233863 -0.236758 -0.166057 -0.168178 -0.117353 -0.118898 -0.082544 -0.083663 -0.057788 -0.058595 -0.040268 -0.040847 -0.027930 -0.028343 -0.019284 -0.019577 -0.013253 -0.013460 -0.009067 -0.009212 -0.006175 -0.006277 -0.004187 -0.004257 -0.002826 -0.002875 -0.001899 -0.001933 -0.001271 -0.001294 -0.000846 -0.000862 -0.000561 -0.000572 -0.000371 -0.000378 -0.000244 -0.000249 -0.000160 -0.000163 -0.000104 -0.000106 -0.000068 -0.000069 -0.000044 -0.000045 -0.000028 -0.000029 -0.000018 -0.000018 -0.000012 -0.000012 -0.000007 -0.000008 -0.000005 -0.000005 -0.000003 -0.000003 -0.000002 -0.000002 -0.000001 -0.000001 -0.000001 -0.000001 -0.000000 -0.000000 -0.000000 -0.000000 -0.000000 -0.000000 -0.000000 -0.000000 -0.000000 -0.000000 -0.000000 -0.000000 -0.000000 -0.000000 -0.000000 -0.000000 -0.000000 -0.000000 -0.000000 -0.000000 -0.000000 -0.000000 -0.000000 -0.000000 -0.000000 -0.000000 -0.000000 -0.000000 -0.000000 -0.000000 -0.000000 -0.000000 -0.000000 -0.000000 -0.000000 -0.000000 -0.000000 -0.000000 -0.000000 -0.000000 -0.000000 -0.000000 -0.000001 -0.000001 -0.000001 -0.000001 -0.000002 -0.000002 -0.000003 -0.000003 -0.000005 -0.000005 -0.000008 -0.000008 -0.000013 -0.000013 -0.000020 -0.000021 -0.000032 -0.000033 -0.000051 -0.000051 -0.000078 -0.000079 -0.000119 -0.000121 -0.000179 -0.000181 -0.000264 -0.000267 -0.000382 -0.000386 -0.000543 -0.000548 -0.000754 -0.000760 -0.001020 -0.001026 -0.001336 -0.001340 -0.001676 -0.001675 -0.001979 -0.001969 -0.002123 -0.002095 -0.001879 -0.001821 -0.000855 -0.000746 0.001609 0.001784 0.006605 0.006780 0.016063 0.015580 0.034808 0.028480 0.055538 0.041973 0.065494 0.050199 14496.391523 15440.940260 13590.545375 15552.829902 15009.317446 9358.947682 14971.874742 14346.373394 13958.689639 11898.220404 9238.547052 14166.213775 14447.149260 12703.584101 15250.126673 12022.349750 9219.616081 10759.253091 8959.753854 12033.932198 12979.552957 12336.303833 13427.068935 16284.624305 15762.927368 18624.768176 12811.561709 14565.932847 7332.778393 11355.935045 9486.392892 2104.947178 15342.890008 16553.811847 13657.173635 13925.095579 10490.376883 10917.787390 13003.875195 12459.796207 1253.056683 12867.725817 8188.436180 12227.296198 10831.128324 7604.814534 13702.798195 13936.512652 11888.505907 11458.661964 9408.314822 9993.081110 8442.641828 9601.554807 11612.065060 10558.094654 11043.797681 11155.595791 13180.924512 13307.366551 8808.797685 11727.142125 9518.587121 5616.900691 2654.212222 11345.043523 10989.097176 13043.282358 15863.383155 11076.884383 10359.531941 8378.827344 8023.766976 10566.214258 9286.997876 9405.186435 3072.492392 9981.737627 11834.566032 12922.093917 11484.136171 13088.955511 5412.611698 5129.859829 9950.507135 10612.151510 6266.550690 4204.529450 12409.975250 11761.895709 10824.963713 12131.750271 10659.255953 10031.097193 9806.718328 9569.717591 9078.430539 6433.896629 6829.365125 11737.182466 13617.070003 10803.293025 11220.507148 8271.246855 10614.770927 7347.032035 8489.234779 8923.818076 4434.833209 6983.062773 13038.733345 9054.910997 12011.920955 5684.804194 11560.239649 8969.414832 11100.568143 8648.672954 7661.723015 4275.210449 5420.499356 11645.472616 12548.503412 10421.908365 15243.682931 6074.794397 9988.988153 5886.708395 10165.739608 8707.939194 8544.764411 11104.429120 13472.693463 12186.046598 12343.626374 11134.469271 8456.670774 11614.893096 10900.737025 7891.953439 11335.423398 10723.740241 7413.974489 13319.346809 13136.146109 13792.474460 13665.758992 12257.958893 12428.645045 10558.949803 11738.851581 11275.782755 6007.577071 2460.742587 15398.069901 15908.854660 16272.186183 15498.655644 12983.344573 12945.428934 9349.891023 8633.174979 5898.807520 7372.742203 2105.949343 15193.013252 15687.374454 15710.565370 15509.444360 7297.580852 7907.364359 9714.295362 7488.979922 2467.662248 4153.181690 2581.430911 16163.606495 16893.715140 16091.323022 16550.875940 13770.274266 12238.183219 11923.319203 11581.998044 1684.356755 7.273688 1669.476630 17603.044394 13395.350615 14425.729224 12309.949592 9907.519770 7200.240166 7444.675608 2103.860724 1798.062340 868.712953 1725.518258 17974.205681 16286.908599 15351.957238 14469.131082 13078.563040 7829.055125 7575.528791 4182.788665 6877.938529 4905.836594 -569.537264 18570.947745 19155.921494 17806.916030 12353.308449 11748.191483 9258.958459 6501.348570 5383.362845 1326.078028 1331.572399 1735.272511 19060.191899 17283.745252 17801.025008 15351.538508 11421.156026 6030.235170 8485.992402 1322.389573 2904.774250 1423.498797 1018.274509 19397.491611 16576.568809 17983.228660 13989.995214 12770.708481 255.628208 4685.930279 3302.222124 7536.678124 3400.966231 1356.575477 20682.293388 20292.318465 16348.591328 11951.634112 12272.285842 9291.437392 3791.195790 2765.456530 3249.850211 5558.509289 1123.016766 21172.735506 20359.251788 18122.576949 13839.092587 7410.254795 8918.386080 10466.591880 9703.764589 2566.485684 6079.207388 1403.580132 19370.973132 18136.848405 16128.797936 13543.066938 12637.633360 12568.980469 8235.555161 3544.995375 7550.268959 4602.800382 2904.838873 23065.920222 18342.465640 14735.535584 19933.853777 17292.804031 9117.823996 11562.236671 5315.707003 6626.998554 7918.427568 1952.510650 19151.428738 18654.872567 18356.799992 16374.586869 16599.963479 9929.104103 11757.030441 5163.610432 4940.284653 2070.302744 3694.188804 21457.559321 18377.875814 13076.570701 16110.511829 13985.935248 17724.878683 10585.733119 10388.548220 2203.746907 5712.158980 7718.539714 20907.778013 21343.894769 16200.565885 18081.851034 16555.650745 10689.079331 6400.502168 9234.003571 7600.839806 8129.335247 4781.990080 21204.521579 20700.183519 19547.378423 12585.515170 13271.754365 7725.025033 12846.977027 6083.569685 9677.869417 4020.426277 2128.886849 20673.679275 22643.914048 22532.947227 18411.938247 13509.637119 10216.550203 9479.067342 6881.663413 7532.577482 3275.628103 3942.037774 21688.219777 22090.716733 15251.671657 17898.844673 14821.717115 11921.896344 12949.423643 9489.747168 8510.839331 7331.140788 -420.856798 19849.813474 14174.202493 21034.732751 18144.806070 15466.792157 14701.814776 8284.785829 10377.247497 3730.366750 4516.812895 5212.005533 25157.005877 21770.438163 19062.895043 18430.593096 18140.186858 15020.485366 13444.685394 7556.228619 7976.012184 2648.653103 5882.951115 24829.343358 18909.189369 19532.701406 19165.166688 16990.612116 16284.984262 10506.773587 9369.951841 5455.433969 6423.213017 1930.277820 25003.405942 23427.388170 21230.121785 17549.914701 19742.014653 13394.772811 12929.725779 13691.738911 5807.353057 3576.308799 1696.484225 23433.761481 22723.792158 18400.091574 19746.587071 17625.737421 18723.538467 14082.845733 13270.241186 9133.316480 7919.827143 16054.495032 22194.609602 22306.567358 22509.007395 21548.968977 22585.193521 14548.715786 14245.061978 14381.837725 9497.299622 2440.815825 2359.542930 25673.222726 25643.921452 21708.457359 18602.742809 19247.684892 14322.542810 9082.650198 7730.226325 10783.039068 6569.598083 4498.966891 25261.924544 21407.245161 20151.492568 14667.426836 14510.648550 15679.305249 7823.218161 9147.349116 4559.218612 9425.209837 53948.677120 25416.605707 23614.582674 24120.161834 19583.870850 22030.511204 16304.038948 11924.414183 8725.930445 8430.678611 3240.839890 5020.965150 25496.389322 22976.393307 24584.063231 19076.752032 16863.724544 15638.314250 13869.992373 10186.885808 9096.929992 8251.442468 3911.038017 27229.972078 25551.754607 20694.925301 19813.458820 18519.109039 15440.903712 15031.084018 12616.538445 4248.289997 5307.325494 5953.290046 25294.032602 23756.014491 24027.338322 23872.653529 19911.733641 16888.739105 11325.381660 7960.734254 5342.080095 4667.954323 90919.957983 28763.183298 24760.080310 22322.320278 20050.430610 20490.813104 16057.950551 11308.233105 14237.689590 7179.794953 9824.849210 2053.560639 24999.326071 22359.305877 25652.398839 16146.648312 11843.096377 12897.250606 8948.130486 9488.902449 2910.657210 7285.946473 -838.499227 26395.685317 23978.042311 22618.993734 21487.035653 13176.425911 14652.882231 14292.570149 5073.665216 8580.607470 11219.377515 4535.415106 25094.675802 24979.018003 23123.987750 23244.022148 19617.300977 20100.038765 9860.133043 14739.323597 7604.925594 1950.400082 5577.934755 26210.649229 26373.628020 24289.021239 22087.342293 18334.547178 22172.592535 17453.652688 13312.367240 10124.045265 3418.676610 3971.067464 25988.813553 24001.771350 23906.722637 23152.641576 22291.355515 18825.405715 19303.522801 17966.564005 11536.972000 5286.622842 2031.192186 25438.052014 27634.833501 27683.395998 25484.149236 20849.220787 21335.008870 16497.371481 15091.363122 9811.831709 8416.315840 9117.087244 28949.171088 27939.019122 22702.755241 23941.370735 22355.197201 20613.875949 19747.355777 12212.061008 10345.835091 5564.945947 2170.914890 29026.571992 25773.459125 27252.801341 22853.015736 23695.785496 20082.149933 18071.881240 13318.572667 14255.415220 13971.344260 8298.722814 28427.149315 27070.695377 27365.687793 23916.450392 24011.459433 21006.554141 15522.747895 13073.105051 9219.778508 6314.982337 2758.556051 27709.174751 27234.403680 27219.893333 27425.240808 22679.859701 12321.883216 10888.163358 13075.965415 7044.520495 4671.461869 458.138423 30366.864400 30717.209607 29211.125028 25583.176477 18794.799858 18358.853415 14910.020870 7978.078421 9523.946111 3399.837190 3903.819125 32622.534500 26007.220342 28656.026212 23100.112607 18710.290021 18230.859280 14859.955066 11617.593004 8270.043392 4526.403506 9933.031560 28562.045631 28666.247261 25973.732756 21851.578145 22651.201575 18488.928670 17945.621675 13794.521891 12591.460544 10466.132023 11629.361370 30066.749338 29156.725943 24135.904124 23149.205833 23702.021226 18720.191238 15735.238815 13601.607439 9904.269702 7382.764954 9287.019188 30938.238561 25778.793817 28222.107256 25174.507853 21065.603054 20124.987350 16405.667395 12957.232398 9390.126515 10347.056372 11449.976732 30820.831553 27912.663976 28172.571869 25249.905618 21719.196135 19772.032029 12007.558690 7749.716968 10173.960844 14499.241017 51948.449821 30777.163816 27687.499673 27602.492979 22477.887861 23169.535116 18150.615727 14048.650754 7742.095404 11511.504853 7283.772762 3611.955499 30249.346831 30329.737949 26408.836600 23733.110991 19700.829463 17764.941675 15564.598457 10148.560730 14744.590231 6549.122830 6636.427371 31051.428646 29231.513472 24465.725107 23731.865424 23551.216227 19497.557128 13964.667272 14552.896336 10598.933120 7536.791552 -2189.306108 29184.898411 27608.358927 28531.745755 23132.057469 20608.460342 17722.488532 15863.029562 12288.311709 12864.357701 10055.052681 5964.384110 28147.560082 30441.701668 29861.159686 23151.136414 23302.432918 19604.642949 17154.071955 16727.757543 8728.617104 646.270294 9278.679588 34350.244369 30618.832880 25832.125848 23450.679994 21268.087094 21418.216326 14722.517003 13692.937232 11278.969931 10010.205878 7060.529088 30387.156678 25286.846935 28785.733601 25023.238542 17201.774217 18455.907908 13683.190473 13394.181538 11714.146196 15687.285636 -2370.640290 28859.430721 30585.511434 26815.512107 24744.221497 21421.703577 18560.013726 16648.298341 15723.417705 12458.559209 15411.521499 1960.239230 32966.053259 28189.399908 28569.524182 24620.640011 20490.502332 21125.888464 18201.674152 14553.116159 12791.062203 16026.168857 2434.650418 28378.247387 31146.925256 29128.670859 24575.122749 25330.757312 19278.535493 14669.736425 15994.087514 14105.964955 7473.532955 708.584879 35970.146073 27605.001596 23105.701709 27994.408476 23450.285080 22073.591280 19406.165464 14268.588799 14350.033469 6600.339900 8771.964456 28879.757686 29681.856449 31420.803795 25848.926777 23295.517225 17139.314198 18572.777822 15543.585509 13778.915367 9866.841467 56624.820837 28858.366512 31638.990783 28051.571273 26498.047169 21209.852411 21192.332549 16775.272744 16827.718819 8823.389228 2130.220540 1966.532211 29192.093639 31052.636664 30724.558231 24237.155442 23266.047361 19762.498761 18473.306470 17839.912971 6504.027542 5050.812518 15208.554550 29810.464318 31684.493077 26757.102004 27363.256422 24008.902129 23029.951909 22677.529057 17926.963468 11790.920056 16776.747165 3964.217872 35582.197043 30188.416651 30130.953172 27362.348508 22874.326097 21201.718774 18017.232684 17647.702446 10913.179600 14967.797271 6546.259483 33543.147890 31191.146322 30324.640053 27107.683587 25647.883162 23174.666377 15484.498279 12410.310145 7450.163719 11575.524023 13041.638729 33014.743670 32789.651632 30668.266408 27409.278378 28709.084950 22248.440495 20276.968743 18040.558538 16902.063143 10922.566713 23202.015536 32641.390334 33172.447299 27643.463434 29920.258952 23613.968257 25113.173879 21736.197018 14394.784050 14741.948373 11951.460277 18321.341543 34785.125450 31393.350664 31227.244324 26043.421832 25164.817642 25667.683841 19200.153686 19419.241119 11851.247473 15939.151955 3127.760242 34609.774842 33774.903270 31522.621891 30123.087229 26368.348570 20338.489286 19620.411230 18349.421410 11445.846344 13948.238121 -1605.993554 36467.900719 34714.060065 28658.281015 28453.554199 28084.504129 21116.997117 22215.041122 13869.242286 16563.414197 17615.996199 9337.293559 33757.851268 33734.250214 31490.611102 28983.358049 24776.814018 23049.398327 18729.491752 18472.457768 15294.600315 20153.234838 49835.209124 33373.583403 33758.172348 32234.645830 29279.889843 31306.766716 23094.783043 27276.565365 18687.629182 16520.372628 9036.788186 21764.763521 39173.771935 33233.641528 27954.567421 30432.627713 23268.478134 23933.639582 17257.412560 16419.063552 13130.922210 14662.324283 20342.321159 37505.952486 34728.934261 33117.664879 30209.058326 28028.566713 25363.250524 20773.124828 12309.309891 16559.066066 20239.084508 14803.535319 37371.177302 35531.432624 32132.228232 30006.717326 24019.939848 25800.481183 19647.688291 17276.878166 17468.533262 17855.311132 8143.418520 40860.370608 34808.044473 35734.699195 28040.305374 27514.953411 22472.471400 18570.632125 18694.228302 18936.278433 13565.945917 12952.365431 39045.612539 37130.250535 35499.579724 29691.748667 25819.419725 24085.373933 21691.088919 16642.172541 17332.674501 13146.419285 -8861.010111 39714.507808 34465.758995 35640.942666 29957.068764 29572.285656 28957.967960 22158.222236 19072.991581 15421.818079 16406.817835 46428.029977 35885.928915 36430.695381 29132.147783 36251.576862 26780.265565 27088.936844 23645.501656 22182.040245 21995.405195 18518.364609 28800.617552 36161.927797 29743.112931 37629.933082 32417.899406 32528.787751 21014.502325 22257.192507 22780.127589 21467.631024 18412.746762 26125.291317 39007.717460 37533.297062 37319.767711 30722.536679 26210.660209 27579.943190 25733.826404 22813.801533 20665.892316 17526.604576 34930.201303 41351.174993 32303.627877 38342.995298 27971.267433 31260.453516 28178.805817 24825.674374 21484.891734 21574.055837 22609.133951 45888.886325 37888.500683 37291.587780 37114.087387 30900.338872 32157.175025 30045.170612 22822.148797 26000.436931 18211.687853 33084.836131 70497.057495 39683.030941 37436.626601 29421.295049 30193.599758 31185.138533 21997.734614 29930.819987 22051.601614 24346.589882 34417.031183 50028.118788 35910.690262 43733.821281 36467.103830 36540.485311 23746.882178 30999.333381 24709.090667 24145.803983 20129.083318 26231.831943 41271.035566 36106.218307 35320.861609 34528.956064 33179.703920 34228.697153 25335.449754 27757.429382 26082.172482 22676.334811 29252.416877 79679.463564 36671.962912 35223.742988 37716.605332 38247.361359 25864.718086 33596.178621 24051.430276 22240.455226 21842.687278 28753.565729 123502.546977 38182.168278 36286.825974 30031.400359 37988.409398 30005.526909 29137.648650 36509.690720 36096.077383 26675.658463 35661.896852 30981.534254 7438.452103 13933.719069 13662.920052 9527.567318 7670.489084 12578.024938 11295.328276 7844.259325 9566.705100 9506.908044 2584.398323 4505.254668 -2075.792119 -12305.331170 11129.443976 5020.342497 13347.266947 10494.188556 8535.667966 11058.596132 8657.771811 1491.479645 10202.605902 7674.415949 2401.894353 2520.164286 5561.855971 -389.584379 6276.104365 8505.865541 7389.516669 7986.475040 8608.301584 6090.836757 5628.796509 7490.768857 8696.344721 5860.340197 -1132.428744 2480.831807 6676.540450 3384.576946 9379.990078 6324.806230 7460.147820 8506.474063 3886.772096 6376.405918 8883.868065 4231.587003 6135.802584 6488.771552 6004.121517 3020.016447 8961.050690 8597.586954 7239.819487 9926.592259 7389.951470 2799.483992 8555.972022 6113.722646 6453.076070 6774.853602 6530.891708 5239.608273 6631.515914 2017.308033 8501.765344 15851.950980 8281.526063 6296.404311 4140.194030 12602.662814 7237.662460 5558.279424 5661.818401 3760.031604 3358.318311 6025.281268 3600.715684 -980.551854 9085.022607 -4370.610218 9389.864866 3288.974049 5388.197168 4113.997415 195.724634 4942.178591 7243.973210 3684.485463 4385.157928 4797.655979 3921.855183 4253.947436 3688.474014 -192.804880 4937.383488 8584.578984 4303.500824 7058.178094 5877.344609 6355.305483 6106.446850 4813.301518 116.018605 2914.642742 3832.846695 3226.241177 3838.455955 -3061.668042 8251.510113 7142.529913 2954.306072 3069.442774 6617.080230 3574.709508 2711.849979 2064.359084 2369.389611 4715.781403 2997.116502 2510.368778 643.218993 -1232.203153 5987.993582 5883.645102 7205.672527 1666.736989 6130.953377 341.202622 4839.539728 4353.940147 5074.637470 2269.645537 1644.964418 863.245275 786.612878 3959.005728 989.772589 6338.059341 10586.707414 5259.624448 4058.859288 2812.917323 5188.869515 5123.388730 5278.667864 3583.303109 4151.081813 3588.643609 3163.470907 8159.148952 9890.333026 200.882747 6821.867453 11661.814755 5879.494859 5744.545842 1445.091077 6754.778248 5164.976767 4691.588113 1160.332552 3412.404345 381.019114 1997.257105 5700.046792 1561.626973 1607.331883 3666.955583 1720.912716 2591.957394 3770.419195 7302.038008 9728.681771 8899.704990 3347.445012 3238.774372 1811.801820 1051.625181 1463.618329 4755.985062 4200.070818 2334.745411 4621.164962 1301.544863 3764.238125 4075.107102 3097.411767 7171.769188 2655.740927 458.545978 366.136894 587.702728 716.376750 3053.941480 3543.144489 2850.906392 1032.434948 859.347976 6577.511378 674.026323 1523.256091 1088.013267 658.928339 2263.007565 1195.433771 1341.726663
</DataArray>
<DataArray type="Float64" Name="Velocity" NumberOfComponents="3" format="ascii">