<VTKFile type="PolyData">
<PolyData>
<Piece NumberOfPoints="1945" NumberOfVerts="1945" NumberOfLines="0" NumberOfStrips="0" NumberOfPolys="0">
<PointData>
<DataArray type="Float64" Name="Pressure" format="ascii">
 31491.434867 35554.199877 30110.038392 30210.118278 29101.168279 24404.428598 31480.667141 29026.823034 30342.709245 29863.128464 31371.181173 32271.488373 29851.782652 30033.902959 30358.876455 30484.265002 30658.396713 30053.281885 31411.395037 32853.683189 33132.805724 32638.679895 34070.032974 33484.377641 31398.949677 33601.300771 28774.190819 28789.861681 30037.022410 30502.459469 29045.472660 30038.871154 28505.110118 28145.096465 26171.435308 26077.058499 25784.339090 24432.644227 25757.148546 25270.217328 24991.796225 26358.265991 26964.911984 26299.327088 30134.793610 27824.368762 29670.314554 28918.461988 25436.947844 24547.649054 25720.993807 26319.019310 25914.852991 24290.766289 28160.160803 25336.491686 26436.542789 25272.698375 22625.972220 22502.669069 23283.744087 24371.341060 23754.597577 25143.769983 25580.728236 24356.916791 20614.874367 21721.004938 22546.982429 21759.606371 21071.421947 19529.716224 21598.926753 21837.534306 22374.675263 20941.481975 20055.238553 20590.458206 20307.271542 20536.452407 18730.722505 19282.484939 18345.223090 19115.940963 17127.310936 17119.396891 16993.002518 17716.985666 17259.092610 17858.674522 18567.625630 20007.192380 19302.745759 19103.460897 18744.918171 17587.436249 19451.566117 20078.651629 19008.343016 18207.881271 19844.446934 19194.250502 19586.978937 18677.188488 20665.132331 19757.738324 19117.123361 16373.676793 20038.905652 17851.518542 18574.439882 16524.310565 21145.863901 18403.009767 20004.152385 18817.494713 17146.925168 17460.005220 17839.024341 17703.276795 17924.723939 16996.543877 17779.389575 17193.674961 17275.390166 16301.657689 17198.619286 17486.145742 15843.238987 16510.663853 15896.751820 15320.607248 16781.634641 17141.759027 18553.016072 18021.079229 20308.141342 17615.247063 18314.110112 17291.178352 16900.035668 17036.041657 16888.569512 16724.822526 18045.689040 16638.325933 15863.458803 15118.639123 15742.816763 16730.399543 15962.943211 17105.220996 15904.235306 15066.392124 16426.995549 15674.202307 16989.933842 15184.052433 18445.895245 16783.105521 16252.728829 15765.891694 15188.370250 14949.249218 16790.709887 16148.452597 17598.580600 14902.025033 16676.788879 14037.970077 17577.587061 15132.679306 17782.998450 15240.233542 16903.761594 17336.969333 14341.568142 15269.382229 15974.816084 16813.946278 14998.941615 16343.758948 16514.182318 17006.616648 16407.562853 17335.171303 15864.946226 17349.632066 15879.239674 18323.355350 15673.105788 15932.307307 17341.944111 15837.382551 17258.321813 16252.294662 17922.541931 16611.407038 18688.238889 17106.336191 19501.240151 16952.587055 20599.705435 17367.850215 20397.984143 17570.460476 21045.177720 16771.261758 18421.590026 16163.614527 33692.187539 32629.785425 29332.516244 28448.802402 27610.931050 26038.929785 24720.656778 22357.810937 21627.865390 21326.589832 19575.827032 16997.283382 14579.199843 10786.407616 7143.111494 8859.321245 10512.040215 10038.403314 7916.337473 4333.090590 1143.369448 -1153.675422 -2617.134669 -3527.237572 -4077.503540 -4387.378784 -4534.550453 -4570.362897 -4529.032135 -4433.609582 -4299.909712 -4139.068531 -3959.178694 -3766.316726 -3565.182024 -3359.494694 -3152.246760 -2945.865367 -2742.323318 -2543.217787 -2349.829369 -2163.168513 -1984.013451 -1812.942088 -1650.359421 -1496.521777 -1351.560464 -1215.516918 -1088.461620 -971.116644 -868.909996 31306.628365 34745.240144 28793.034078 29608.379160 28529.229393 26148.983571 26452.325133 22410.415352 22900.607289 23154.472530 19425.136668 17506.786936 17606.417991 10829.588951 4850.454529 11799.382686 12081.332747 11228.583222 10403.880073 6126.391461 1817.436567 -1009.484484 -2507.310570 -3451.244716 -4025.496942 -4351.759030 -4510.045225 -4553.387738 -4517.179928 -4425.284350 -4294.062394 -4135.009425 -3956.448851 -3764.603115 -3564.263474 -3359.208379 -3152.467795 -2946.494482 -2743.279366 -2544.433107 -2351.246810 -2164.739430 -1985.696277 -1814.701241 -1652.164294 -1498.344999 -1353.370832 -1217.239214 -1089.732133 -969.815320 -851.775192 10921.056677 13870.730329 13810.622152 12874.553453 9586.518061 9916.979729 10768.804869 8964.850846 8619.537903 9660.691609 7949.155130 9304.916797 10168.912465 4562.612168 2169.390230 1273.923200 711.365977 327.462570 48.325452 -164.292083 -331.903766 -467.621603 -579.906548 -674.305819 -754.348114 -822.104849 -878.615989 -924.244974 -958.976332 -982.655171 -995.167205 -996.561552 -987.122128 -967.395789 -938.186461 -900.524407 -855.619088 -804.802919 -749.471961 -691.028299 -630.827649 -570.134679 -510.087546 -451.672362 -395.707607 -342.837855 -293.535361 -248.105147 -206.673313 -169.041379 -133.715747 14036.190736 14945.623755 14291.326069 12957.748621 11190.264272 10587.251417 10224.606153 9063.082114 8120.685936 7610.177185 7062.033875 6425.550309 5218.825833 3594.580745 2237.210046 1336.527352 750.831267 351.302881 63.277294 -154.385301 -325.007942 -462.624759 -576.141541 -671.329131 -751.846063 -819.854997 -876.469051 -922.112618 -956.819859 -980.474030 -992.987750 -994.426710 -985.082488 -965.502427 -936.485545 -899.053519 -854.405053 -803.860912 -748.805634 -690.630682 -630.682596 -570.218656 -510.371589 -452.124067 -396.293062 -343.523626 -294.291666 -248.917521 -207.607862 -170.637168 -139.424196 -795.797775 -762.108668 -768.438223 -736.289427 -698.881694 -680.821215 -613.373961 -611.135317 -541.704120 -541.902813 -477.753935 -478.323641 -420.238288 -420.831209 -368.581005 -369.140745 -322.330489 -322.848495 -281.062249 -281.538173 -244.366279 -244.801376 -211.847561 -212.243554 -183.128219 -183.487070 -157.849469 -158.173288 -135.673075 -135.964072 -116.282321 -116.542761 -99.382544 -99.614704 -84.701270 -84.907409 -71.988011 -72.170337 -61.013777 -61.174430 -51.570362 -51.711390 -43.469433 -43.592779 -36.541490 -36.648979 -30.634715 -30.728053 -25.613771 -25.694536 -21.358558 -21.428202 -17.762971 -17.822820 -14.733669 -14.784929 -12.188890 -12.232647 -10.057300 -10.094530 -8.276919 -8.308493 -6.794099 -6.820791 -5.562584 -5.585078 -4.542641 -4.561538 -3.700265 -3.716091 -3.006457 -3.019671 -2.436577 -2.447576 -1.969760 -1.978889 -1.588398 -1.595952 -1.277683 -1.283915 -1.025202 -1.030329 -0.820583 -0.824788 -0.655189 -0.658629 -0.521851 -0.524657 -0.414636 -0.416917 -0.328648 -0.330498 -0.259862 -0.261359 -0.204977 -0.206185 -0.161296 -0.162268 -0.126620 -0.127399 -0.099160 -0.099783 -0.077469 -0.077966 -0.060377 -0.060773 -0.046940 -0.047254 -0.036401 -0.036649 -0.028150 -0.028345 -0.021699 -0.021852 -0.016658 -0.016777 -0.012711 -0.012803 -0.009604 -0.009673 -0.007125 -0.007177 -0.005098 -0.005133 -0.003363 -0.003382 -0.001768 -0.001772 -0.000158 -0.000146 0.001641 0.001672 0.003838 0.003893 0.006696 0.006782 0.010551 0.010676 0.015841 0.016018 0.023135 0.023378 0.033162 0.033491 0.046850 0.047285 0.065352 0.065918 0.090074 0.090798 0.122681 0.123589 0.165082 0.166195 0.219363 0.220692 0.287663 0.289203 0.371963 0.373678 0.473738 0.475551 0.593465 0.595236 0.729919 0.731423 0.879218 0.880115 1.033579 1.033386 1.179735 1.177786 1.296982 1.292390 1.354841 1.346461 1.310340 1.296730 1.104954 1.084348 0.661291 0.631576 -0.120370 -0.161653 -1.365481 -1.421124 -3.228356 -3.301433 -5.894720 -5.988511 -9.583347 -9.701215 -14.546421 -14.691609 -21.068311 -21.243457 -29.462903 -29.668019 -40.072323 -40.293642 -53.286770 -53.428982 -69.696044 -69.186759 -91.254451 -86.334355 -109.978132 -100.863905 -117.937846 -108.316200 32207.254718 27868.302467 27129.344785 27160.773790 31351.163084 25158.134030 31145.282580 29226.187913 30025.937151 24092.722677 27804.267672 29350.650932 31545.949708 23772.273624 34803.128054 20604.817644 16344.370811 24045.200846 21660.364310 23400.682757 24858.289422 23762.595579 31639.261640 29387.769659 27570.649473 32338.800813 27465.933911 34681.207967 19600.014988 26020.143499 20832.159923 11187.054090 27592.119077 31866.243862 31112.053603 32371.861272 16888.561198 27433.305328 28530.124322 23689.234170 13926.415955 26476.315141 13503.393679 29973.908079 21560.549395 13285.829756 28737.630052 30823.225568 30077.778833 23149.202872 31700.537903 24457.549006 14620.083402 23010.442489 21815.025024 26477.036187 31063.241821 26224.887978 31103.182794 26403.601921 27318.774135 30759.792556 31499.797146 26903.758000 23425.693589 30069.710924 26410.347970 26383.838546 32296.279988 27120.790176 28425.327038 29452.340239 32305.508246 24388.335638 23660.094482 23410.332588 15853.570399 29940.056968 29054.342278 28958.163221 26211.076394 34302.346851 24774.443799 19342.641621 28404.430634 28862.410477 15981.420012 18864.274897 28699.365814 29769.947608 23001.551463 29652.593411 28815.685176 21344.891122 23517.481786 27323.938602 24805.480211 13583.791934 21740.317753 27089.867285 23849.214500 23413.805190 26573.825049 14819.078306 30623.913776 18506.801432 24825.370457 25226.753645 7911.699266 17494.709452 24389.760561 24004.869076 30220.752928 10347.960611 29180.361314 16814.604786 23339.415111 12656.945395 13730.923954 10660.581066 6941.457495 25119.433959 28959.337028 14418.147389 25248.075372 10774.846763 21331.849851 14174.228050 15597.358577 19197.676836 19508.066395 16687.335231 26608.277277 22633.609262 24001.306544 22047.918627 15605.793326 20888.058358 20883.327795 10562.425973 24447.566477 23936.729530 17331.130935 26337.386172 24440.899862 26985.476755 27032.273724 24619.022457 20425.727414 20149.837067 15003.523083 20648.359951 9220.747075 16070.010789 27267.843514 25703.099166 25650.863871 24981.180463 19918.591834 26131.367663 17457.770434 17447.079593 9067.887457 8013.120513 8482.707043 24833.432856 25974.705677 25058.469702 16860.268963 18461.351636 16306.405687 15267.059478 11719.735111 7388.926194 8729.438334 1285.430940 24418.414721 23382.478774 24196.709574 24349.698625 20697.093348 20885.971769 14142.667121 18507.378639 11369.137931 -138.271370 3510.722302 22049.479997 21044.944228 24187.227160 17177.003777 12326.858289 4168.164739 6534.702405 10638.247766 4747.735127 10408.313999 4220.671678 20601.945892 23047.738836 21277.003385 22695.430440 18522.897398 8563.949608 15353.501256 6885.648536 9014.577077 4879.773476 3122.848711 24430.017048 20149.038485 21685.652301 23093.786361 11115.963168 11931.392723 8838.398109 7361.631847 3126.594301 2234.616630 2131.417978 20657.305893 21955.119811 20992.086397 19471.851557 14968.898130 9368.353888 4066.425171 2482.904544 3366.690070 2397.553390 3319.213133 23762.901279 23539.340639 17757.545749 14531.269151 13045.518764 6946.329012 6790.019820 3974.071411 4198.416712 2114.213618 1871.164103 24433.972481 24097.909849 23799.411030 13055.032338 16203.229731 15651.968278 4701.309541 6178.280155 5654.315687 5852.533983 1458.193470 21427.295841 22098.500960 20833.452090 17056.168924 10513.162273 11984.140996 12907.270145 11741.965823 9560.847379 3982.270674 2857.652482 22731.752782 20310.165933 18714.573247 17340.357973 13789.357306 13553.010012 7782.523966 3178.469749 12510.737124 6436.258086 4840.652892 22065.290544 21083.190371 22255.432722 20239.964838 18112.429308 10701.558983 9582.786188 9840.586310 10780.516771 8464.412138 1176.115819 18282.583884 21546.373680 21061.693025 15520.798254 20582.861880 5316.226525 10211.808575 5970.650755 5836.359243 1069.693353 1437.532815 18038.784669 17808.003443 14757.794843 18823.454132 10663.974301 17345.043805 9397.821418 11973.946539 3832.498283 3670.956584 5105.037042 19957.544738 20892.455896 22495.010573 19073.108136 16627.892712 10233.368717 5353.290486 9258.934393 6866.115924 9510.328191 1885.104459 23340.058755 19746.960845 14415.714617 11760.261455 14233.054118 7799.630029 9541.406918 5903.395787 6557.314460 7868.066325 4136.377328 23265.307672 19298.027729 19233.118452 17429.829602 16318.554420 8895.048166 10938.282808 10117.162193 6145.121878 6705.445547 3669.391867 22030.974746 19122.124624 14301.173323 20002.296273 15801.955441 13490.900612 11485.195476 8884.346293 8274.992113 6291.003266 2804.382094 20768.815055 12443.620950 20836.129189 13124.928040 17132.043574 12186.733141 6936.319930 8928.852287 4413.613463 4794.552738 2828.448370 22185.671727 21496.421875 18438.474882 15589.799220 15031.269535 10599.195545 10204.308532 10038.581686 7147.637926 5234.540357 1712.496967 20769.870773 19674.239976 18205.575405 15160.480680 14666.813843 10582.187246 10702.386655 5507.504847 3867.283471 2749.468361 2205.941332 20901.486453 21994.070451 17086.887886 14660.510887 14780.305607 13564.351774 10637.791460 12102.901087 2091.207565 3978.571980 2551.671089 21034.184137 19868.903543 13858.592328 15507.125460 17004.938354 11483.066979 12043.626067 12453.267958 7569.413278 3360.448065 1334.335487 18660.923610 21556.904991 19968.622341 14513.432669 12461.986381 7964.268685 10269.886454 9526.466939 15648.617129 2952.839824 4674.217277 19331.685305 22547.879510 18391.034386 11662.722372 13420.631539 6305.587315 6464.051704 5332.055222 6201.028208 4989.101076 1813.754161 22094.195947 18217.199101 18260.988683 14130.194109 4823.015160 6568.332714 5886.151834 4503.227483 4123.932921 6024.853533 3555.630768 17323.850389 19076.916074 16972.995468 16866.193189 12510.064424 8897.401641 3002.209894 4755.365181 6244.438818 1263.936253 1970.388938 15779.753359 17932.661275 15963.679927 11935.175500 9794.871415 12087.442628 12237.952238 5277.209445 3004.097323 2414.068231 2846.348255 22514.076864 18082.319184 14213.009560 11514.684171 12959.679137 6264.519141 8955.349734 6174.503303 6983.952005 3346.055425 4079.800014 17348.667362 16280.042499 14842.817772 17955.699763 9932.183667 10410.404757 5933.385978 7090.421023 5134.676642 2977.340686 7257.709487 19019.675590 19605.443269 14973.482037 9063.303027 9263.880835 8637.533182 8024.584018 11198.161331 4416.499242 6896.444527 2644.809658 18046.890354 17189.994411 17895.097337 5196.016918 6910.852052 6669.291459 6617.960006 6520.845145 2620.382686 6441.190743 3475.048510 19511.374985 12511.606084 11052.618705 16806.700734 8707.594802 10712.935709 11029.401037 3458.927456 5349.478991 6305.579259 2610.607051 17342.943396 21511.440301 13845.742836 13400.471661 9576.979140 9587.061234 3944.060348 12379.646226 7221.798085 3128.119337 2835.181271 20117.194137 19116.419333 14680.503040 11790.793572 8904.550609 14201.207701 11855.270406 4341.986083 8988.548123 3636.912275 1796.591976 15896.334173 15850.902033 16637.206475 12555.465905 11600.781705 10061.954583 14718.582016 7649.574566 8317.244820 5009.333870 2990.411851 14352.255998 12607.737046 18246.588677 16270.648337 10040.783572 10752.757574 7794.544487 9198.375494 7746.177691 3731.235427 2395.538949 18242.762019 15793.977491 13193.142278 12642.254848 16754.551146 9989.062615 11165.933547 9744.277667 6391.135954 2963.769524 3005.668936 18073.698064 17023.612665 17033.435429 16062.018032 13560.622954 11736.939878 8278.670490 5666.122048 9228.642755 3868.736540 4400.570532 19302.487384 16218.617131 14428.196117 15694.758611 16104.659416 13037.554728 5947.862279 8855.211016 3502.277536 5080.651353 3796.640246 19423.069498 15522.938175 17736.134706 15529.601837 9588.362684 5814.383648 6633.381401 5602.419909 2873.337270 3008.245590 6937.814959 16648.782613 15122.294110 17661.301151 12809.432237 9381.721036 9614.626082 6565.002133 3965.754547 4167.306007 3334.955699 4913.580318 16875.491242 16398.069468 15888.900348 10498.672429 10475.415969 7988.355364 8878.662161 4625.307950 5676.042998 5199.468959 7240.701794 16909.383980 14748.780611 15472.974421 6419.327308 14709.736583 7943.591572 9338.070979 6374.864699 7193.495450 2509.068032 4055.309064 16838.650709 17359.078427 15929.162236 15333.061690 10645.536784 10830.838744 11206.659291 13779.615656 4732.552962 4788.188959 1520.888397 14609.608272 16607.446250 15822.535233 15016.590713 11879.408099 10820.106574 8760.484312 8812.483010 4383.634003 3003.562999 4893.744360 15970.743434 14071.480543 17481.534751 13684.904332 11505.793595 10433.073174 7576.605379 4706.207001 4737.529447 3360.148283 773.994276 17904.080366 15546.189546 14693.093875 12908.776807 13752.187406 9382.099704 3781.548168 5006.901845 7159.353839 4974.912187 1171.356354 14425.025328 16445.170994 14762.055562 15121.858189 10527.111816 12389.944831 13284.245075 6495.141215 3582.943303 6273.611347 2468.815803 16893.285532 14451.794023 15976.175689 13828.068415 13290.601400 11711.535333 8644.434031 9006.099306 3653.542644 3787.958026 3718.794544 17528.484264 14890.577241 15013.953704 14279.550766 11440.887784 14128.881749 9403.488800 6043.187236 6649.928436 6158.923638 5432.239454 16671.418365 16953.082272 15614.902535 12544.892428 7213.907852 10553.068083 10237.104967 5257.964957 6468.446242 4427.379726 4899.502090 16224.325186 16366.607267 14167.909734 14848.104221 10230.862580 13131.325814 8380.802116 8623.536877 4390.534496 4405.708170 5401.297961 15353.517521 15191.997766 14401.983772 14936.820636 10679.966553 7855.183413 6941.358021 6834.782577 5554.184084 4884.301181 8397.514755 16017.171515 17362.602549 11552.156833 11301.887011 11388.976918 10296.170926 11507.463673 4833.974073 7999.495174 5836.028558 1344.336856 16733.233849 15800.972075 17712.513848 15516.771815 8093.342764 10443.170000 9685.128696 5684.483458 6046.573703 6941.894727 7131.250299 17246.065744 14806.642581 13585.136541 12826.992414 11029.038357 13737.376780 7095.436257 9751.443059 7375.388189 6685.081790 4800.442321 16715.638824 14785.710544 15103.115187 14866.329095 12166.858404 10747.653731 10128.689886 7934.612769 8873.055153 9049.249690 4730.792828 13816.981475 15820.960393 13709.168533 13453.778635 8853.044979 13409.492494 11921.170004 6279.670719 11178.267159 4181.369495 6644.107476 16808.597868 15878.657384 11513.292199 18168.084775 13505.361269 12844.124217 9355.349254 5268.660312 7234.046089 971.581632 56.385556 15749.716652 16751.623423 15138.274935 14180.163428 13490.616308 10298.803011 9341.168405 9093.886572 6566.504840 5760.624285 5929.236603 13009.346453 16691.613791 12779.055837 14208.986283 10750.432186 8647.348600 11588.851705 4355.062863 7919.393457 8676.422240 2187.223517 17035.040203 16963.102291 14907.848962 15730.092595 10861.851321 10920.723930 9327.059554 7464.290572 7627.656686 4371.366581 2070.740158 14017.952058 15502.459152 13176.454236 13813.810678 13081.419550 11062.347615 6719.481051 7467.591724 3126.688981 5369.115344 3956.294544 15218.703211 14535.309252 16733.973883 12097.406479 13518.571935 11490.857431 13731.917828 9865.444304 7232.740699 7164.683493 3849.836539 15241.733928 14724.311510 15240.361273 17184.528181 11474.999645 9624.474165 11416.460270 6285.412520 8985.762761 4399.212154 8928.871250 15167.137161 15052.391910 15990.153947 14100.238937 9394.440580 12126.403344 8574.945162 9816.337494 8840.267329 2066.718447 2361.225514 15578.202675 15590.558822 13596.089057 12224.952740 13338.140179 13444.094568 12084.487690 9567.838820 8122.293537 9133.608333 5844.802800 15373.693028 15590.940444 13862.691436 14083.060642 14588.295498 11548.505807 9663.097236 6666.239804 9093.903213 8321.262585 2784.880741 13831.688423 11984.180938 12735.835347 13700.391039 12703.851733 11612.646749 9385.824788 12232.334689 5400.125718 5986.153146 1928.049683 13583.184457 12855.766413 13932.963092 15827.484553 12883.092791 8907.533426 10634.313474 6753.799151 9209.629138 7040.912352 7050.903715 14057.276788 12726.705140 10165.215293 15298.217703 13087.106179 10445.981457 8988.415597 10009.834465 3192.500964 4366.788107 8193.319465 13560.798689 12577.544443 14120.992848 12945.419891 12921.880096 10780.135562 9143.134644 6760.481799 5081.538447 8500.706265 5608.735756 14969.904001 14634.261724 12389.304560 14078.549434 11283.042639 11532.303668 10169.311607 2625.441569 6494.877178 5718.905436 5556.382702 16917.846824 12642.888962 12402.096833 13118.169575 11405.909728 10160.576286 11307.601865 10633.841605 9815.587977 7066.734114 -328.918832 13339.970660 16500.280314 10404.148886 13008.385252 10821.016044 12231.458828 10507.072634 9843.519167 6547.146159 762.756434 3880.144271 17162.582558 14776.084653 14405.073795 15088.019195 10629.854134 9125.558866 3611.411031 11293.780242 9730.141743 7106.398424 6718.212293 16644.460937 17176.716349 12302.109668 17526.215782 9859.733523 12573.242391 7926.915017 12621.368513 8813.629795 5986.826157 5756.002226 17083.699653 17111.875143 17038.691585 15664.229389 15601.059869 11023.043754 13947.098806 11714.446866 8067.405502 2623.021920 5636.842745 18143.150470 17509.369129 12915.605598 14644.429933 13738.461020 12479.845127 7928.215005 12896.789875 7851.387614 9633.839870 625.883039 16148.241783 14614.806939 10860.116003 12491.119155 13051.311289 15090.086852 10427.871940 8621.427649 2297.107866 4232.812393 5652.662595 16701.731872 17768.257063 15521.099445 12937.628181 13609.893658 9975.346067 8865.856442 7184.982634 6177.844884 5999.216629 5594.345790 14909.981112 15244.939432 14980.950626 10560.607435 11457.489455 10527.496680 13159.812985 7811.945027 7649.344781 6751.910073 3080.231651 15514.648466 16264.566050 16920.722386 15093.244914 12249.794056 8243.958916 8044.463518 7504.604028 7850.271082 4702.568463 9732.633594 14194.624223 10451.419158 14464.893579 14670.609954 15295.667514 7894.320945 15651.170098 5586.637355 8645.134413 2657.284966 3961.245279 13695.639793 15737.901114 16471.463194 14251.185687 13347.563946 13917.124276 11323.346185 5545.888118 7740.906830 8326.191074 6016.625240 12586.546611 12775.168777 15396.539199 11730.777908 13100.412447 11083.970746 13249.855280 13778.191594 6392.565967 7863.072392 2578.206805 25252.744551 29043.612669 29312.429565 26250.151400 21270.563736 28853.805329 25566.890514 28762.706249 29684.277921 20668.770313 18882.362898 15901.331820 12382.722632 6465.154168 27126.278329 19447.522026 29846.662281 27219.875322 16462.094152 30297.749265 18485.410932 14274.190700 24727.854790 13005.639419 15557.918398 14984.605876 8424.077715 23517.866621 17494.709937 20294.156318 21602.418798 15369.350033 12016.939438 12123.811602 18428.480128 15470.627707 23116.643400 16109.505895 10433.782943 11525.320996 9897.798659 6835.539626 20191.941805 13331.231412 17647.237820 20735.743694 17876.480700 17690.722667 19219.157921 19657.438721 10911.131737 21865.051263 16508.209752 12223.544031 12466.838278 9522.364854 22064.009511 31053.116816 18393.544653 14699.517394 24251.385229 18637.941591 21173.286698 15951.355156 16932.828314 9548.835639 15969.478813 12264.427860 8577.171846 5916.515054 15844.422414 22645.569723 17424.530693 27771.450946 21920.655026 24581.236542 28667.228461 16808.138971 11646.935218 13795.204965 11563.404023 13156.672520 21116.504905 14774.887346 28797.866410 8127.469500 16812.714922 17496.533683 8788.198544 21271.839575 21794.640756 24730.075746 12378.201705 12545.235764 12264.518213 10191.860930 7710.132242 1111.423483 12937.665012 12446.572703 11917.674489 24377.117085 18479.640076 18120.078811 9271.137490 8910.796098 8635.548816 10046.521894 13619.539511 9710.883430 6007.424234 5030.888320 19466.993709 18825.739221 13209.392609 9333.982928 14348.811648 8719.558250 10708.357928 8735.084505 5168.031616 14703.928355 12589.117877 11277.134240 5330.506625 7690.588042 7941.699471 15497.607577 12368.395143 11956.866598 15031.128311 8985.280055 15497.470356 11873.424103 14655.003997 5132.285242 5779.729276 4621.777283 4113.818094 2876.805611 9223.840712 10831.931933 21001.103937 16899.792476 5029.152034 9566.986745 10777.435840 17812.169972 9974.679995 16062.120802 20503.193400 9908.353371 6484.264172 9271.302372 12888.931089 5781.818451 15049.680509 21910.956123 10566.307593 14780.884632 6403.626999 16492.681348 8917.681747 11876.018218 8793.876142 21409.640704 4351.846455 10399.187968 7312.560283 4972.451660 4718.063742 14138.762424 8642.634328 6671.516923 10738.113892 19438.515552 17325.728226 9521.133655 2632.150896 10374.030317 8725.491313 7087.104329 7303.119229 7521.660697 6567.291556 5720.291992 6291.966512 6169.784815 8023.322962 12342.825853 10401.976366 13851.721794 9770.469489 3260.173896 6052.666855 9312.124039 5038.839059 2312.688666 1752.150053 1676.959178 2283.057728 2272.311049 7387.590142 4471.558750 6156.020869 3485.704231 1530.218706 -1241.531853 7591.763325 7361.766072
</DataArray>
<DataArray type="Float64" Name="Velocity" NumberOfComponents="3" format="ascii">