<VTKFile type="PolyData">
<PolyData>
<Piece NumberOfPoints="1945" NumberOfVerts="1945" NumberOfLines="0" NumberOfStrips="0" NumberOfPolys="0">
<PointData>
<DataArray type="Float64" Name="Pressure" format="ascii">
 17527.102652 17331.290443 20466.869841 21539.950716 20594.138208 21266.807523 19536.971579 20399.094315 21763.874820 23187.590654 23573.494403 25088.278491 21842.624500 23877.150091 19938.406326 20229.209991 22139.285128 23811.999725 22341.406462 25209.251660 19704.123756 21419.474858 19788.407092 21586.274548 23417.042239 24108.069478 23902.362637 24743.239419 20416.606102 20580.924011 20428.978941 19825.520676 23228.664111 24384.557541 25793.659719 25124.489129 24756.216257 22564.683512 25576.700287 24772.315382 25717.606055 24005.094910 23996.612737 22794.717209 22230.746364 21163.912390 22751.007963 20444.244800 27248.362302 28262.233199 23973.452461 23636.249390 23391.296331 22090.072106 24170.420451 24063.661448 23216.661303 23771.244236 21291.883112 21777.459359 19992.924902 19878.045665 21724.848454 22502.222024 20467.212452 21281.080256 19240.916439 19012.252014 20422.942860 21363.835630 21172.911614 22160.372946 19968.968147 20002.876027 19380.070866 19310.666933 20211.263209 20356.161939 20676.290882 21341.209816 19211.869849 19285.799839 19833.323311 19732.682524 18848.684190 18725.554268 19174.831512 19530.595069 18247.708636 17676.820805 18463.351460 17925.700618 19332.393976 20089.060683 18280.454749 18084.487253 17825.489159 18192.034773 16821.555968 16280.373351 18155.680971 17415.682131 19499.259905 19808.901921 18779.668760 17488.857208 17480.929466 16252.009284 18378.141448 17104.556276 19442.927537 18287.267973 17985.792328 16705.199059 16285.028744 14989.409132 16186.081810 14726.698829 17547.996758 17004.136445 16383.902709 14627.035604 17628.364803 16606.773761 18569.234005 17963.824305 16514.238180 16008.256348 16318.840777 17920.785650 16641.915027 17679.869094 18152.678129 17703.905596 20387.641710 21739.980739 20411.604062 21028.813512 19049.390625 19455.805074 22393.414380 22784.231121 22432.149134 21873.096212 22301.598728 20236.023439 22119.745579 20937.737548 22547.728327 20127.073465 24261.699144 22629.277670 23086.782003 22078.439280 20725.552896 18571.939524 22465.507311 22054.366085 24492.673444 24304.538113 27910.283860 28302.887953 27321.081236 26623.105268 31324.326755 31439.296845 30841.915410 31467.826634 32055.056540 33111.471512 32504.829061 33749.428083 35323.300378 37116.016204 36105.447337 37201.334124 39959.073543 40009.358010 43023.389741 41883.190657 41907.707974 40058.459443 45788.358111 41460.768878 47593.070153 42559.054978 43884.483029 40256.662199 44798.919811 41109.795802 45904.204936 42176.431676 47241.569203 43122.433273 47462.806551 43831.337206 46356.563319 44768.932556 54027.946822 52992.452690 48049.513977 42463.812464 47334.335041 45078.525762 46257.810048 46770.851143 45202.202136 47946.153638 48936.001395 50361.967255 15585.590939 16351.329535 15489.584263 13889.828112 12419.536241 10860.520266 11463.214002 9667.484487 4049.491661 682.548524 3362.220622 2787.448912 2035.321189 -717.812156 -4754.592895 -4295.861831 -3274.548217 -4952.814524 -8698.747031 -8918.494811 -8393.029916 -8085.081474 -7745.988394 -7373.098659 -6977.676554 -6565.269218 -6139.646296 -5704.707629 -5264.962252 -4825.434346 -4391.367805 -3967.890593 -3559.717543 -3170.926463 -2804.816281 -2463.841301 -2149.608915 -1862.925989 -1603.879515 -1371.938627 -1166.067073 -984.837285 -826.539362 -689.280184 -571.069721 -469.893170 -383.769327 -310.799700 -249.233659 -197.695282 -156.563709 17124.149190 20067.582097 19544.693491 17665.700472 17721.826860 13639.028511 18000.336637 18382.582933 11074.533234 18570.897040 18277.493075 4542.439228 3152.610994 -626.712665 -5286.628773 -4213.320715 -2301.151314 -4854.406324 -10143.673622 -9468.794311 -8321.342273 -8064.939290 -7736.591104 -7368.154948 -6974.593477 -6563.196370 -6138.417193 -5704.371811 -5265.596278 -4827.072788 -4393.984533 -3971.402483 -3563.997791 -3175.820702 -2810.157836 -2469.463887 -2155.356251 -1868.658397 -1609.477889 -1377.306230 -1171.129620 -989.541778 -830.852048 -693.183986 -574.561378 -472.980080 -386.464776 -313.107424 -251.064807 -198.366293 -151.659217 47042.287302 44302.455241 42213.561412 35544.218615 27146.227777 29142.269653 24187.102885 20420.295366 22003.140681 18807.956103 16488.373426 17053.261702 16562.880728 14847.745951 30786.605877 17672.013378 7655.784524 17412.889734 13576.122951 -2924.276799 15179.140898 24273.136169 12087.605468 470.839022 -2275.544353 7106.774152 3050.730276 818.353656 427.806451 246.866220 155.702302 105.468382 75.082342 55.094753 41.082770 30.844751 23.187257 17.395356 12.998143 9.661912 7.138724 5.239427 3.817864 2.760587 1.979543 1.406572 0.989121 0.686837 0.468785 0.310854 0.191857 48284.407762 46329.808017 45979.554627 42023.872401 37464.405320 35713.102271 30901.744522 28703.362810 28580.645331 27242.628072 25739.149737 25339.482418 25548.697092 26145.237846 27974.315295 26209.063404 24447.328342 25828.219720 24637.126948 21278.423531 20546.142986 16542.965769 10436.431785 6528.326768 4526.501126 3078.770264 1755.431739 899.472651 476.007203 270.318834 166.730187 110.756959 77.758833 56.561985 41.965687 31.424869 23.595253 17.695342 13.224327 9.834523 7.270998 5.340738 3.895208 2.819341 2.023898 1.439813 1.013823 0.705032 0.482214 0.322017 0.209785 -129.165818 -116.853126 -121.382021 -110.126835 -100.990980 -95.160545 -77.958709 -77.394401 -61.149870 -61.333045 -47.920010 -48.178523 -37.403306 -37.631707 -29.059754 -29.247894 -22.470403 -22.622612 -17.292639 -17.414774 -13.244848 -13.342247 -10.096562 -10.173791 -7.660315 -7.721210 -5.784584 -5.832334 -4.347662 -4.384901 -3.252397 -3.281280 -2.421707 -2.443989 -1.794800 -1.811898 -1.324017 -1.337068 -0.972213 -0.982121 -0.710602 -0.718086 -0.517007 -0.522630 -0.374437 -0.378640 -0.269950 -0.273075 -0.193739 -0.196051 -0.138417 -0.140119 -0.098448 -0.099695 -0.069708 -0.070617 -0.049139 -0.049798 -0.034487 -0.034962 -0.024097 -0.024438 -0.016764 -0.017008 -0.011612 -0.011785 -0.008008 -0.008131 -0.005499 -0.005586 -0.003760 -0.003821 -0.002560 -0.002603 -0.001736 -0.001765 -0.001172 -0.001192 -0.000788 -0.000802 -0.000528 -0.000537 -0.000352 -0.000358 -0.000234 -0.000238 -0.000155 -0.000158 -0.000102 -0.000104 -0.000067 -0.000068 -0.000044 -0.000045 -0.000028 -0.000029 -0.000018 -0.000019 -0.000012 -0.000012 -0.000008 -0.000008 -0.000005 -0.000005 -0.000003 -0.000003 -0.000002 -0.000002 -0.000001 -0.000001 -0.000001 -0.000001 -0.000001 -0.000001 -0.000000 -0.000000 -0.000000 -0.000000 -0.000000 -0.000000 -0.000000 -0.000000 -0.000000 -0.000000 -0.000000 -0.000000 -0.000000 -0.000000 -0.000000 -0.000000 -0.000000 -0.000000 -0.000000 -0.000000 -0.000000 -0.000000 -0.000000 -0.000000 -0.000000 -0.000000 -0.000000 -0.000000 -0.000000 -0.000000 -0.000000 -0.000000 -0.000001 -0.000001 -0.000001 -0.000001 -0.000001 -0.000001 -0.000002 -0.000002 -0.000004 -0.000004 -0.000006 -0.000007 -0.000010 -0.000010 -0.000016 -0.000017 -0.000025 -0.000026 -0.000039 -0.000040 -0.000060 -0.000061 -0.000090 -0.000091 -0.000133 -0.000134 -0.000193 -0.000195 -0.000276 -0.000279 -0.000386 -0.000389 -0.000527 -0.000530 -0.000698 -0.000700 -0.000890 -0.000891 -0.001079 -0.001076 -0.001209 -0.001198 -0.001178 -0.001153 -0.000803 -0.000753 0.000223 0.000315 0.002403 0.002559 0.006529 0.006783 0.013840 0.014211 0.026274 0.026620 0.047143 0.046205 0.084744 0.072932 0.124436 0.099673 0.143086 0.115434 18322.660312 23058.753713 19000.839720 21277.172516 20589.171095 12820.763290 18561.188440 18635.921952 19219.605204 17667.761298 16474.740261 20322.940564 20541.947091 20032.310690 21917.925163 17155.737978 14862.851020 17157.910859 14766.292929 16711.735066 20700.613190 16120.645164 21777.634690 23221.864630 23803.664062 20126.563266 20763.943584 21436.540382 9498.742318 17347.808845 18314.138305 6084.580797 20184.959554 22429.717903 20356.839981 21354.557153 17370.734296 19784.881756 20764.983602 17315.292244 7686.373491 20875.406821 13415.096288 19606.662942 17159.208744 13700.096384 20408.068416 21533.343937 21863.922019 19812.432093 17810.924255 19692.425386 13772.337594 18307.868842 18692.948991 19301.352903 22460.349614 22666.975602 22659.575637 20450.593519 18665.080166 23072.862379 17611.074339 16916.963491 8905.529231 21282.774490 18483.548702 20168.990219 20792.934666 21767.323539 20758.421751 17887.931447 16465.051283 20467.718732 18752.670139 20336.780463 8716.599745 22049.239344 22248.640085 22101.469922 20849.299397 21712.704674 20615.176723 11750.890493 19012.860102 18081.817924 17463.647371 14327.452872 22842.125090 22677.843598 18676.569676 20121.632594 23136.451372 18689.036121 15609.538606 17920.397039 17341.349544 16331.896752 18320.416780 27008.722622 19897.739866 19537.668151 20091.387857 12756.399782 21120.893838 16704.228184 18594.274329 16971.860905 9819.612349 13291.070618 23539.169779 21295.196419 20621.184095 14921.620712 20306.728932 14019.870369 18719.740540 9431.309119 9436.952864 10040.694887 9746.298306 19906.851043 19838.714451 17332.083730 20451.188357 13284.256154 17561.531782 12674.220504 13482.109496 17043.629641 14390.633721 11137.883091 22234.797606 20374.622834 19737.178002 17065.945091 17766.288221 16286.935790 17258.203158 14478.849645 18117.520781 13289.964425 10045.197382 20702.841799 17952.953828 19926.094093 21414.874885 18559.556282 17517.874629 14837.051873 12883.831666 13701.603547 5562.179185 6273.007778 21584.841173 18640.647344 21250.561428 18607.774307 17844.414851 18489.585803 14917.588708 13151.022968 3526.240546 9222.049699 2143.076486 21767.131818 17934.901477 19313.725001 13166.973862 13078.331150 10030.549502 9860.093866 7174.354328 1137.524986 -545.105760 1871.827261 18321.469352 18253.986905 18218.124067 19308.003470 14967.204934 16622.765288 11241.468621 14636.385596 5188.080040 1276.424543 1476.403998 19911.435529 17273.794953 16184.917929 11922.742742 9783.947777 6224.002392 4826.967631 1298.059804 831.952604 1274.011057 553.628307 18280.388001 16767.043990 16611.897997 15215.883228 13814.234854 8697.587619 6015.651542 4629.982055 5492.824982 4896.124455 1094.688014 20241.347084 17194.465561 17788.998592 13787.684213 9673.309279 9793.906177 4855.282059 3751.479198 1278.415059 -187.579794 1319.945552 18882.877115 17423.797360 17397.454659 14382.410016 10911.963053 5866.502625 9373.894746 2508.726137 -293.120725 2370.292653 1127.521471 16961.331963 16644.969855 15489.825389 12466.043089 9578.431097 2830.701094 4255.655065 1873.074288 5258.651643 4681.443430 1573.761432 18852.011667 17359.911885 14581.160298 12462.711479 8858.869745 8933.456885 2789.317035 3968.924649 1736.619549 1778.736465 894.514794 17023.512092 13273.255096 14169.639646 11128.945399 5325.927029 7509.947218 9134.421424 6313.360980 2498.489435 4336.929053 2503.283217 17097.798527 16686.195026 13717.471010 12325.490002 9297.743126 8992.467367 8007.983563 2047.503067 4751.859344 2405.965792 133.941251 16684.902607 14616.292012 14506.280928 15095.582647 14917.940257 6470.567866 9905.557355 4685.437226 3822.512107 4017.659379 2155.899038 16790.693023 13507.906194 12684.791915 10447.646749 12578.176892 6271.462207 10060.658460 4006.575580 5137.988725 3251.921076 2179.030719 17546.669845 12211.621155 9878.118833 14433.684627 10435.257667 11944.593722 4534.059908 6725.548261 2431.676174 1678.154378 3312.778849 16707.647296 15501.486286 11929.500857 11183.162064 11590.841764 8857.630404 4219.909995 5150.698039 3936.833459 4988.200286 526.745822 19249.859209 13462.510583 11889.282303 7460.216174 7642.990361 6979.195840 6445.432137 3071.723893 4364.862149 4245.862732 3287.077518 16924.825396 14502.584657 15018.393684 10405.480156 8611.632243 5805.270921 7198.734953 3949.423724 3624.587286 2434.581917 1969.064574 17709.855167 16955.093126 10869.850486 14463.688678 9793.913077 7324.628936 7669.195998 5976.372825 5633.438277 4248.408827 4093.516427 14272.921504 9173.332825 15904.801399 11959.140685 8309.140799 10165.541839 4951.552182 7204.602783 2538.569134 3911.496715 3255.718152 15851.137695 16615.105896 13020.611790 10035.061669 9893.770107 8054.856549 8208.254017 6118.257136 3002.833699 731.337992 1840.231728 14689.687810 14026.909948 14267.427207 9320.171181 9390.984626 9583.623174 5406.028561 4654.169624 1972.200735 3788.170763 1253.495957 17630.798259 15542.873789 12661.418123 13174.306344 11051.185494 8995.973679 7494.658679 8583.310505 3492.225574 1791.198127 2508.324247 16248.209267 14799.602731 11970.401828 11899.116533 8483.771023 9413.250118 7824.208293 6407.658647 4282.532459 4691.625275 24528.371456 13990.965661 13329.727162 13035.768747 11465.177959 10098.745686 8135.515130 8864.161587 5984.991815 7094.208396 596.989808 -905.957272 16320.124420 14132.424638 13121.091646 12223.515185 10296.007592 7101.116198 6694.170438 4170.233315 4849.696984 1305.005564 3837.225058 14842.873176 11867.350409 12318.124112 9417.557332 7677.418508 7801.762304 4279.541096 3726.930272 2418.592597 3766.362604 3727.461669 15711.962586 15010.889201 14724.578223 12040.567303 10801.839801 6864.828414 6324.441099 3533.761053 6344.846924 -850.818978 2109.241211 14260.184329 14675.539141 12408.751287 11931.385587 10117.982541 8248.755926 8775.467893 4750.406601 5513.365304 3397.078650 2935.160270 15121.375923 14983.656022 12965.004063 10536.861883 10488.257526 8997.857761 6436.300981 6586.393606 2609.028021 4201.747222 2967.639474 14620.880867 12359.501597 13981.768288 12871.873760 11248.649878 10897.792213 6997.388690 4214.911061 1665.282497 3555.748256 -5180.397523 14350.294561 15123.996220 12481.042540 10408.855945 11508.076212 7668.078080 5215.096905 5600.027801 3162.245248 4932.257897 2188.356872 15699.577638 14690.317177 12607.424569 6441.203602 7180.848035 5735.377571 4761.748038 3548.988819 2575.235421 5006.327049 -806.965558 15643.927461 13122.675654 14373.083027 10633.947243 8901.239031 7882.480166 7546.767900 3088.287505 4216.924944 11812.560484 4585.323941 17103.193165 14483.536707 14109.753049 12647.045944 12227.580949 8692.460808 3222.158854 8695.572370 3490.924503 2412.864225 819.839599 16005.276398 17320.612028 14877.667971 14498.057288 7790.078170 11757.653643 9298.550331 5171.701929 6194.771754 226.896809 1305.337989 17593.696648 14195.043291 15093.171480 13106.050994 12157.339028 10593.019456 9185.488189 5957.137919 7858.360322 3952.380841 1626.944666 17065.576515 14121.494810 14888.833313 12022.525205 11591.828025 10898.665109 8371.059584 9568.169866 4667.615908 5707.106742 919.735216 18243.284642 18295.857013 14956.370985 15954.097454 11457.636611 8730.572947 8360.049166 7808.405802 3519.599043 5270.801300 1361.866897 17177.336745 16985.889917 16693.722667 13990.273820 12487.686410 9958.128078 7597.981044 7037.433418 6262.109751 10003.969778 6909.549487 16698.011816 19307.657377 16620.161337 14918.762884 11546.666056 10241.236673 7644.356461 5079.987974 4605.908696 7848.482724 3012.212052 22319.435722 18769.005484 16660.614254 14298.538886 12842.840414 8115.648808 5279.193784 6908.933344 4986.662823 4580.579396 3854.748062 18495.560466 18102.160431 16401.330446 13751.404687 10337.752919 10102.581286 9239.825362 7138.842506 5771.082312 4485.976092 2265.965893 21286.689665 15487.422882 16676.690921 12869.642881 9477.299438 11064.182241 9084.029961 8508.007068 8747.298415 3120.344622 11163.664619 17994.981455 17829.226674 13953.490876 11695.074548 12042.059390 11597.116501 14141.369148 9257.073349 10214.844448 5837.412114 4839.632651 19336.035911 19419.848001 12955.699014 15156.886208 12151.114606 14033.625926 11751.797322 12297.078951 7515.700258 9407.096908 4011.513992 17709.062269 15404.500363 14562.698479 16783.265474 15007.246808 16177.443519 15252.481358 13053.194193 6388.057047 5833.219796 9508.653686 18505.031963 17240.231518 14506.126942 17209.572236 14624.912769 14254.967980 10984.875746 9261.941549 7562.848278 7252.193042 -23545.915368 20127.767457 18903.247502 14746.319033 14522.354216 17677.364676 16246.042301 12395.798862 10050.330368 13637.387578 5995.828969 619.560670 20296.854674 18655.241511 15889.906288 17308.160450 17679.116976 16407.199102 15185.734211 10402.167218 6908.759392 1818.829573 7261.908694 22684.759018 17019.216223 18907.033744 16884.498413 18844.294427 20490.292994 13935.169019 13044.413372 7394.392628 4260.961002 -1598.908541 20352.528413 18571.001339 19868.010984 20672.898682 20815.079890 18236.582376 15674.673827 15092.975473 11314.271678 9792.413392 7532.234727 19020.724997 20810.949587 18652.710185 21833.425108 20917.751186 17621.217524 17793.155924 11395.029629 8736.567975 7332.560073 744.123857 18871.532139 23573.769772 20271.945572 21832.202309 22441.638264 19415.097843 15694.961788 11207.454375 6548.574515 4569.058560 4377.605274 24555.915711 21123.354681 22851.951507 21181.960640 21577.591221 17824.783169 13208.087178 13383.003221 7716.029942 5694.556628 -2888.968032 23051.434249 26380.668357 24283.569609 24197.671981 21711.368049 15672.131950 17475.421996 13127.109191 10579.635404 3893.229364 -3575.635783 24819.024707 24772.657680 23530.396361 24409.266733 23042.378168 20473.987309 18238.715249 11712.892582 6210.211514 10070.006945 2862.277139 26904.677831 24936.437624 24553.667694 25820.714408 23256.890209 23842.480279 9603.003140 13163.148747 11099.152213 5289.423301 -3397.789759 28446.526259 27416.278413 27151.793608 28870.855546 22115.322308 23247.060688 14054.279422 5610.714585 9257.249933 8991.003200 -398.900322 30516.684103 26853.156629 32530.512678 24803.067711 22419.677477 18639.397775 16582.087878 9882.476589 12020.764927 5552.020122 10885.377962 30531.734533 30328.052116 29085.160620 27430.580905 20296.510487 20648.714728 12413.829064 12683.984790 9501.273345 231.815758 2684.646528 32748.632434 32760.504213 30650.815136 26112.342077 25928.331205 18707.023485 13970.883423 14175.778399 1224.920829 9966.237571 1217.792727 33879.924326 31392.051600 28118.103401 27321.104999 26187.061792 17217.596974 22129.581378 12841.998785 9068.345308 6581.183120 1920.822066 34605.367786 34449.239377 31707.677693 28585.318505 24710.385898 22585.241885 18122.386382 9848.078346 7540.009147 7588.545520 -889.573154 35971.048347 34769.406716 35241.408364 28867.375765 26138.119074 22102.537811 18123.010363 14287.411548 7226.482183 1754.501401 26146.717009 37030.378924 35711.503475 34831.001538 30002.632517 30117.111736 24200.623668 19994.317991 11734.495169 16143.591158 14596.892534 10917.590638 36608.242903 38279.325281 31720.886124 30590.232183 26023.353022 23153.990257 20568.392781 11378.571207 8838.167482 11447.010560 12381.127791 40253.785874 34798.035253 35984.037473 26395.692611 28748.417123 24784.895631 17053.891901 17699.349760 8301.090905 15382.387186 11767.071120 37076.062246 36129.210474 33731.399768 31458.584243 27866.935696 21700.482851 14546.652752 14883.071055 11873.120142 11631.478072 27659.671686 38084.689703 36400.517797 32775.307276 33317.441075 26519.900202 22730.953129 20972.774301 12963.325949 16138.726295 12760.294923 -5074.851849 38431.095291 33764.909223 34324.997356 29703.334268 27238.582906 22712.891815 16716.981076 17626.718950 12147.927384 13136.579712 57587.993433 38757.886632 33779.101444 33562.342812 29161.304181 28230.737779 20790.458107 21634.594917 14783.877345 11190.723079 9906.965847 18001.424129 41370.982421 34783.008591 31749.748567 33459.415468 26928.707717 23703.320053 17835.816982 17187.496834 13678.809345 19090.249952 19133.152037 38489.612848 34157.073273 34536.962747 29451.757659 26941.849714 20301.810145 20585.478279 15712.074148 16805.897507 17878.444619 16538.489601 39063.658687 38273.573041 29764.524313 31422.102175 25109.031081 26067.770998 19225.808177 16075.395612 15047.942139 17172.457656 -16828.978334 39338.692525 36037.301203 35921.177634 28090.335274 28182.522901 20172.920953 22289.042247 17110.019853 18135.334473 15204.856390 8848.761521 38237.390668 39795.056188 35976.663961 30971.482398 19171.852883 26184.460489 20732.206121 15959.238641 14840.950262 7829.908433 9466.213671 41041.669658 40351.725914 36549.313016 32832.284148 27772.770978 28817.835802 25750.835832 17608.718382 22376.897689 8302.818583 13856.790270 37582.033668 36940.984260 32437.377105 35962.469316 24047.221304 30394.392084 17292.555670 19229.264776 20116.480361 22114.362762 22609.830148 42786.871434 34292.675591 38029.067877 33787.466207 32479.189458 25893.627120 20492.225472 20302.831999 21398.359012 13025.682845 21231.542166 41750.303109 42071.507181 40245.195013 33902.002164 22372.712201 25439.675438 29726.133429 18402.962512 19853.978806 11323.492616 -24806.733271 50419.563257 33514.417838 36539.612953 25156.248504 32676.463143 28629.789359 22548.814792 21609.953441 17855.690046 26193.204107 29630.358532 44156.142459 39476.552331 37385.278613 29863.065051 29233.473805 28042.559327 20971.294385 17302.208406 14288.137614 20910.401344 8058.141359 40862.478311 38123.362619 26354.643162 23254.336580 28535.064918 19935.558177 22114.623835 17876.575018 18384.671384 15260.595752 5915.771598 37605.047176 42877.461427 41112.523543 37343.824653 22255.024471 28446.018608 21103.768998 20973.674565 17003.928275 4363.363534 22607.942899 38061.167785 36257.226688 29960.693017 33386.852729 38233.789160 19429.263127 25775.315420 17246.889202 13997.379685 21575.132563 14151.720931 38070.977653 47552.614098 41064.679205 43558.973686 23983.386397 33813.035054 21500.683894 9685.390454 14767.723060 19558.992738 16848.716328 44721.327434 44479.124549 30015.946044 36642.566924 22325.573560 20952.306838 34258.131547 27633.419055 14589.130252 10785.977068 29230.656871 16705.805565 21786.347645 20067.899946 16058.858590 9554.443531 20980.637970 16639.648438 16429.578040 17840.114170 14258.609928 13300.269614 14000.232187 -996.847050 -7085.563655 17781.160168 6003.199943 21823.025024 17951.456657 8380.658970 19137.612844 16078.056358 14164.822383 16900.976096 9630.508258 23861.648736 6693.673119 30149.828362 20999.316171 13248.774857 14281.242600 10569.587611 14991.398637 9517.399508 8512.138611 9115.963426 13241.939543 16129.363240 10663.759919 6590.118586 3675.741170 13992.823817 28170.234907 15012.437561 11054.805896 15301.706258 16187.026003 11490.217158 10555.962254 16480.021837 12487.066314 4997.996400 14671.384004 10126.984091 3418.987844 15409.891738 16036.116509 15084.955360 15480.341469 14179.412883 7590.612516 17225.511534 11586.826984 12008.621518 14816.583771 10935.570842 6426.437587 7572.999254 8677.116413 -3322.871995 -60.234759 14895.056819 14657.476418 9650.407034 18154.829341 16789.123792 12593.333191 12021.994145 6565.516966 10549.419738 12644.410670 10859.006511 8080.731301 16143.194160 13983.175154 21272.202825 5250.153546 13099.278990 9393.060563 4891.167567 9634.936212 11568.652724 11515.123312 7712.385212 4544.973941 9892.873225 4724.370233 213.155365 3763.221337 9225.121215 14737.059635 9997.809044 12039.093257 7861.257953 12336.637483 11679.559530 9285.237923 5182.817017 7099.344536 6738.848524 4400.695469 3330.014701 4645.216475 11619.859536 14835.537825 6964.801236 7068.349752 13524.264288 3277.600199 6926.986566 1096.470571 1946.151796 12562.892691 6049.817886 6345.862922 5398.576498 1680.994152 10769.938130 9148.510909 12000.944247 8096.119142 8420.438386 4184.247106 13085.865817 7927.844052 12561.055907 2844.268286 7552.486628 3515.526776 2355.345791 -1961.356767 5897.100412 8243.178224 13375.005037 8407.602576 7045.288664 6024.479176 9593.195298 7909.676586 13690.003670 7794.091094 10670.504206 9430.677676 6552.664047 2976.741709 9850.961006 735.113927 9548.532240 15075.128435 5011.903227 7145.684971 1311.924112 4850.686594 3864.295050 6930.147550 5862.598168 9116.978275 3021.305264 4601.885962 7898.387275 113.837739 2604.532915 5435.479751 2412.251917 4829.981543 5325.494282 8392.820628 11791.244261 12922.939756 3352.692003 5845.904405 1833.573805 2601.421419 2319.748150 4452.018785 521.544112 2719.066554 5711.977847 3744.835929 3091.403978 6242.394481 5499.731525 7706.835563 5892.443622 939.627449 2099.020063 2737.421940 1086.465236 -1279.646990 1039.380557 955.626932 1249.866822 17.058275 4022.341972 1147.807087 1328.027860 2736.209041 959.029476 3292.807322 3699.583077 5899.545096
</DataArray>
<DataArray type="Float64" Name="Velocity" NumberOfComponents="3" format="ascii">