<VTKFile type="PolyData">
<PolyData>
<Piece NumberOfPoints="1945" NumberOfVerts="1945" NumberOfLines="0" NumberOfStrips="0" NumberOfPolys="0">
<PointData>
<DataArray type="Float64" Name="Pressure" format="ascii">
 38742.344574 43273.463324 55404.827830 57411.522324 57964.058876 58913.268212 45995.224021 48959.303896 44170.584466 49200.855760 44500.819925 51776.952185 44306.663645 49725.890298 44448.606872 50068.483896 45593.345530 56478.012703 42286.969766 51456.707134 44737.594472 51426.221079 45547.577761 52201.856415 43783.157352 49434.340474 47264.207618 52065.796240 41336.897416 44183.837339 39849.625697 40873.393971 39934.287193 41048.316670 37179.433965 36234.156675 37275.240697 35070.988891 35995.998235 32555.113394 35454.152352 32035.173965 35605.389394 33870.044342 34517.639929 33560.016260 33029.175442 31784.979462 31393.366850 29447.545497 29847.247567 26704.525973 28752.483068 24526.225351 28125.262593 23523.701509 27745.119787 23648.478881 27165.585240 23878.925804 26327.042815 23443.202135 25384.214622 23143.975510 24417.009688 23049.038441 23315.457693 22707.889547 22018.042148 21607.536481 20663.417288 19981.840230 19379.233858 18238.094132 18222.973609 16541.138647 17229.686784 14760.512740 16381.761503 12997.764587 15685.534189 11252.553493 15127.341567 9592.905797 14703.927007 8096.352576 14412.562714 6828.614626 14239.550630 5850.021252 14160.095709 5153.966820 14148.631428 4685.148760 14184.186315 4371.446014 14261.279338 4160.985711 14380.512626 4027.417950 14543.544802 3961.696985 14751.199500 3976.311865 15002.590920 4084.946281 15298.585302 4302.813334 15635.230850 4637.188603 15999.217058 5080.642713 16369.740021 5608.276530 16724.270852 6187.284399 17044.857566 6788.263677 17318.809377 7380.472858 17538.000996 7934.800101 17698.471140 8428.718957 17802.101651 8851.796695 17854.996063 9195.296284 17868.314312 9473.865623 17855.167119 9521.290791 17808.254755 9693.167505 17764.470760 9831.843940 17729.519546 9954.314130 17709.866428 10074.398913 17711.303198 10201.455724 17736.807143 10339.412892 17787.846180 10494.305164 17864.242216 10659.507428 17961.375163 10987.637844 18092.573046 11170.542052 18231.419872 11354.455866 18381.140343 11547.446387 18545.835238 11769.963310 18720.540485 12015.912347 18914.047707 12314.336752 19134.320668 12661.842099 19396.131671 13082.536483 19703.353639 13560.500304 20059.422724 14067.242359 20462.678473 14605.302481 20911.578371 15100.581111 21404.805845 15659.919066 21897.603453 16029.595169 22439.963188 16576.732382 22938.578533 16825.588982 23455.292710 17159.361491 23976.326660 17632.344012 24429.861888 17624.195658 24899.024289 18138.776353 25641.077219 18304.579289 26960.535618 20244.073260 27294.940412 19225.432750 29168.763541 20220.481912 30093.294813 24253.989590 27690.631771 21094.231717 36353.128576 30536.114066 40173.693945 39437.308397 34017.251585 28735.190210 41129.503336 36340.083123 40473.417133 38188.393278 34017.343623 33628.514875 30472.873313 25361.246643 21756.897581 18723.168937 16037.767859 13287.946933 11157.780921 9087.884205 7285.561357 6060.029550 4436.399923 3046.664403 2126.254839 6030.930272 1905.135475 -4589.233326 -879.054625 -2172.293028 -7895.525824 -6910.546085 -5345.172891 -4328.119674 -3553.685812 -2905.739243 -2348.299267 -1867.340409 -1456.546537 -1111.924245 -829.463837 -604.071260 -429.321512 -297.786704 -201.659314 -133.406109 -86.275437 -54.587194 -33.816967 -20.528862 -12.221316 -7.140300 -4.096996 -2.310180 -1.280813 -0.698294 -0.373837 -0.195221 -0.098694 43808.318041 43936.417898 41963.889897 45778.868090 42523.727841 34863.118837 31880.008380 28372.142472 24072.437052 19924.512649 17120.063996 13600.951125 9674.795189 7640.115501 3929.727495 1954.014871 -2444.566845 9499.634724 -2628.861250 -15408.978925 231.462917 -2475.385459 -10246.843113 -7355.739049 -5264.752414 -4351.267935 -3579.144061 -2926.179034 -2365.283047 -1882.412928 -1470.422237 -1124.782957 -841.206678 -614.500595 -438.266377 -305.173557 -207.531035 -137.903547 -89.600778 -56.965516 -35.465787 -21.639078 -12.948716 -7.604813 -4.386554 -2.486605 -1.385991 -0.759659 -0.408708 -0.213408 -0.100471 31112.830013 23007.603944 19103.911635 16156.199589 13545.767498 9494.579152 8727.715151 5984.694869 -419.941580 2903.633063 10140.082445 4271.289062 1274.158487 311.411116 -53.397501 -137.388457 -117.020068 -74.714707 -40.464722 -19.870152 -9.851282 -5.918373 -4.705583 -4.324858 -3.972855 -3.448129 -2.801033 -2.139681 -1.548423 -1.068943 -0.708072 -0.452195 -0.279501 -0.167736 -0.097994 -0.055854 -0.031117 -0.016972 -0.009075 -0.004763 -0.002456 -0.001246 -0.000622 -0.000306 -0.000148 -0.000071 -0.000033 -0.000016 -0.000007 -0.000003 -0.000001 35935.389682 31870.015788 27265.399245 23207.966771 19842.008663 16053.341837 13185.849181 9557.284576 5109.080488 4821.914201 5130.256288 3128.471902 1396.410177 426.469827 13.025908 -107.916107 -107.768774 -74.171920 -42.516840 -21.944666 -11.220536 -6.617229 -4.974398 -4.382216 -3.956799 -3.425580 -2.794281 -2.149364 -1.567932 -1.091473 -0.729056 -0.469439 -0.292501 -0.176921 -0.104154 -0.059811 -0.033566 -0.018439 -0.009929 -0.005247 -0.002724 -0.001391 -0.000699 -0.000346 -0.000169 -0.000081 -0.000039 -0.000018 -0.000008 -0.000004 -0.000002 -0.052400 -0.033452 -0.047857 -0.031276 -0.029916 -0.022569 -0.013880 -0.013334 -0.006922 -0.007096 -0.003490 -0.003656 -0.001756 -0.001853 -0.000877 -0.000929 -0.000434 -0.000461 -0.000213 -0.000227 -0.000104 -0.000111 -0.000050 -0.000054 -0.000024 -0.000026 -0.000011 -0.000012 -0.000005 -0.000006 -0.000003 -0.000003 -0.000001 -0.000001 -0.000001 -0.000001 -0.000000 -0.000000 -0.000000 -0.000000 -0.000000 -0.000000 -0.000000 -0.000000 -0.000000 -0.000000 -0.000000 -0.000000 -0.000000 -0.000000 -0.000000 -0.000000 -0.000000 -0.000000 -0.000000 -0.000000 -0.000000 -0.000000 -0.000000 -0.000000 -0.000000 -0.000000 -0.000000 -0.000000 -0.000000 -0.000000 -0.000000 -0.000000 -0.000000 -0.000000 -0.000000 -0.000000 -0.000000 -0.000000 -0.000000 -0.000000 -0.000000 -0.000000 -0.000000 -0.000000 -0.000000 -0.000000 -0.000000 -0.000000 -0.000000 -0.000000 -0.000000 -0.000000 -0.000000 -0.000000 -0.000000 -0.000000 -0.000000 -0.000000 -0.000000 -0.000000 -0.000000 -0.000000 -0.000000 -0.000000 -0.000000 -0.000000 -0.000000 -0.000000 -0.000000 -0.000000 -0.000000 -0.000000 -0.000000 -0.000000 -0.000000 -0.000000 -0.000000 -0.000000 -0.000000 -0.000000 -0.000000 -0.000000 -0.000000 -0.000000 -0.000000 -0.000000 -0.000000 -0.000000 -0.000000 -0.000000 -0.000000 -0.000000 -0.000000 -0.000000 -0.000000 -0.000000 -0.000000 -0.000000 -0.000000 -0.000000 -0.000000 -0.000000 -0.000000 -0.000000 -0.000000 -0.000000 -0.000000 -0.000000 -0.000000 -0.000000 -0.000000 -0.000000 -0.000000 -0.000000 -0.000000 -0.000000 -0.000000 -0.000000 -0.000000 -0.000000 -0.000000 -0.000000 -0.000000 -0.000000 -0.000000 -0.000000 -0.000000 -0.000000 -0.000000 -0.000000 -0.000000 -0.000000 -0.000000 -0.000000 -0.000000 -0.000000 -0.000000 -0.000000 -0.000000 -0.000000 -0.000000 -0.000000 -0.000000 -0.000000 -0.000000 -0.000000 -0.000000 -0.000000 -0.000000 -0.000000 -0.000000 -0.000000 -0.000000 -0.000000 -0.000000 -0.000000 -0.000000 -0.000000 -0.000000 -0.000000 -0.000000 -0.000000 -0.000000 -0.000000 -0.000000 -0.000000 -0.000000 -0.000000 -0.000000 -0.000000 -0.000001 -0.000000 -0.000001 -0.000000 54515.478389 48535.783923 46365.155121 46902.350040 46624.233827 39570.990009 41763.772464 41310.743774 39632.660261 37149.277764 35712.938711 43980.591435 45065.612118 50409.445021 50282.197770 47026.113180 46628.136050 41234.336857 41045.386467 37648.503266 37113.354705 32575.719059 49305.013379 49060.361444 49196.859476 42623.022628 43050.883798 41627.853002 41788.522439 38980.411363 38040.360537 34477.399492 32935.609601 49062.592281 50059.106065 47219.372342 47047.337234 44324.335116 45030.468994 39046.314479 38735.825500 37645.569124 35431.260856 32504.396188 51384.125823 44689.375066 47128.536109 42919.430926 44187.112423 40786.861978 42288.357641 40664.647146 33888.585270 31877.496075 30054.477812 49084.558346 51470.953472 48787.190464 47685.865127 44692.830716 39773.426036 38326.444207 34907.309510 33957.492524 32712.557575 30221.975979 51244.623635 42616.836754 42983.217042 44527.292823 41362.955407 38819.426392 38142.410477 37490.891931 34537.625102 31339.117309 27786.536054 49068.313564 49922.700238 47310.073255 44582.573525 42770.535917 38898.339550 35610.172112 33181.125321 32694.563727 31139.583560 28592.753988 48389.348103 40156.398308 41466.938646 42939.585170 39554.156473 35422.712940 36365.962294 34943.782505 29908.979647 26995.498377 28327.739467 42380.491087 43798.536932 42874.256574 38402.664705 37277.664792 37728.716078 33787.638743 30318.303482 31770.570956 31299.342216 25128.550858 41149.980580 39360.351721 36403.000146 37883.121184 39019.759011 31945.928556 33744.010037 35672.533065 25923.704464 26499.093412 29432.859603 38218.118197 37350.413763 36495.774882 38145.413324 32553.947300 31567.539608 30273.614997 26834.596394 30434.480210 24470.899471 22829.940549 34471.897622 35788.296574 36695.140944 32401.547727 32306.307634 32369.023944 28429.273523 29418.129388 18030.733149 23297.938145 22423.575140 33309.583783 36878.860330 32815.159511 30266.341966 33197.301561 28010.316675 26130.333405 22797.064861 26125.965466 16746.024465 10606.354041 32811.224332 35176.191026 31014.732110 31720.141182 30574.729718 24616.312379 29916.929334 20517.653948 14242.997606 17878.507200 7928.252013 32193.127883 31620.847467 30590.921134 30057.389585 26281.079468 26626.700188 22645.981595 20715.280914 9475.778365 9315.417538 -6337.126354 30349.715688 31155.922365 30208.936903 26105.633485 27919.332314 21247.059713 20565.778683 15878.693328 16063.076313 -7169.218735 21109.449595 28380.465267 31330.830550 27500.038536 26710.393190 26640.221917 22135.396376 24923.387573 11766.787552 2885.764064 11129.066186 15107.383655 28099.156789 31355.188120 24917.029951 29897.438134 20341.822825 25961.172766 8908.354430 20260.426910 5103.878144 4150.818336 38808.419010 28427.868385 30223.245456 24707.591365 28883.007393 19912.137472 23620.970490 17255.042672 7262.232559 8381.326668 4335.071488 7761.354792 27997.335510 28213.046897 25622.064413 24999.966431 23974.323745 15447.051803 21564.293245 11270.415943 4575.415825 10417.110959 5174.687487 26620.566679 26635.892269 25053.076653 22492.959406 23827.475689 14184.987169 18640.687108 10732.544654 12515.515861 6110.594646 -3240.917394 24602.886951 25642.204038 23503.189705 22238.181500 20346.856452 17148.088428 11260.464001 12089.231318 10378.682979 6933.203421 3497.669356 23385.631976 24700.804789 22182.670653 21907.091543 18013.466081 17394.327717 11479.341567 11895.322996 4007.164582 6328.140295 -10120.249682 23460.139419 23948.431757 21341.296511 20637.875085 17581.978832 15051.460459 13891.623118 7920.148509 7767.583853 11949.533917 13022.701924 23447.204760 23151.349399 20927.078374 18974.449975 17509.187483 13363.673242 13190.070256 8316.830362 10381.306395 9423.058042 8441.936097 22769.688080 22114.463263 20403.799491 17915.026789 16284.015653 13496.833571 11203.916110 10749.279306 8574.152330 9791.662693 14349.719638 21945.614066 21233.687982 19539.909890 17353.388231 15070.639677 13423.869430 9956.609265 12077.644506 2703.921026 10801.230087 12771.418566 21396.318424 20535.811528 18785.304610 16463.705012 14457.086887 12489.079387 9491.259483 11198.785459 1072.140077 10006.952517 8714.321249 21351.616781 19845.741800 18243.573171 15553.059159 13937.363684 11398.547613 9667.157857 8875.519823 3465.242457 6748.401379 7752.263665 21308.970201 19181.886831 17649.407794 14908.916980 13344.441762 10637.899282 9673.232989 6669.267377 6056.999603 4136.458939 8068.785221 20773.649992 18359.541506 16992.319954 14358.944398 12649.563930 10165.727402 9395.275700 5607.198967 8039.264767 2147.135567 9470.240777 19644.480025 17207.687729 16257.294456 13759.556766 11827.607372 9888.371604 8475.235706 5070.170529 8553.411824 67.590396 11741.596593 18149.587692 15880.284886 15295.013505 13068.278502 10929.321335 9641.798369 7660.517130 4921.925867 7743.964972 -1048.094701 12305.156841 16782.699184 14627.623583 14074.424673 12260.711808 10008.011901 9194.516754 6878.426263 4791.546429 6370.133451 -944.101028 10213.744033 15395.401119 13431.780674 12693.849647 11340.797826 9123.764372 8569.414910 6228.390313 4587.187044 5158.137991 -429.482129 7171.547522 13979.426458 12209.355508 11214.591468 10365.811929 8290.819262 7853.989396 5798.654510 4363.092689 4346.478151 -126.365037 4963.872504 12335.206099 11040.060785 9690.129594 9361.274104 7524.689546 7158.177403 5586.550069 4274.176112 3969.995816 346.015644 3598.224032 10503.601036 9827.515464 8195.270703 8314.417703 6780.884610 6515.237901 5432.643665 4198.432273 3740.770155 754.734694 2903.474524 8702.320681 8646.324042 6804.063092 7208.702810 5979.027731 5802.472201 5113.826409 4031.171695 3629.889361 1101.028432 2472.652598 7039.170640 7526.216084 5516.071303 6046.327214 5069.204055 4945.208424 4529.408415 3637.637823 3222.236024 1178.548810 2037.033461 5577.028206 6460.765510 4336.994379 4887.684629 4059.993210 3940.422066 3698.478465 2972.384714 2651.693362 1038.815938 1495.354005 4397.399453 5509.770148 3303.953940 3809.893236 3042.540975 2893.980037 2734.598934 2123.661080 1898.814191 595.213674 958.785952 3543.417259 4750.061907 2455.062498 2894.168105 2113.548225 1929.316917 1808.729932 1286.803983 1164.868821 145.003039 509.728764 2984.642099 4214.785153 1811.971499 2204.473049 1363.789686 1152.784774 1046.705155 581.267484 532.992396 -259.793940 153.334296 2655.743215 3822.772837 1364.276235 1753.239504 846.867632 619.350429 529.302472 98.755818 87.700017 -540.178231 -81.729661 2441.038402 3646.569528 1091.622498 1501.229611 553.096849 312.062489 243.982880 -165.076609 -161.198110 -675.089019 -208.270859 2352.942271 3602.658347 964.716577 1396.780707 434.069261 186.824330 137.273736 -266.351170 -260.777475 -701.125690 -263.615413 2327.373942 3646.548123 954.179553 1402.939896 429.559919 181.236372 145.107189 -266.002919 -265.666974 -664.400357 -281.781209 2361.268506 3755.106838 1024.856721 1487.093060 500.031695 241.489310 212.654625 -217.451017 -227.627603 -607.548464 -287.665236 2469.471680 3928.555712 1164.647195 1628.348513 629.050565 340.456987 310.378119 -150.404533 -176.902303 -554.765483 -292.786122 2661.315675 4172.484980 1384.150154 1819.433008 812.500510 473.768264 432.966116 -69.930640 -120.911256 -511.473358 -297.643244 2942.867890 4483.674815 1686.550348 2067.712924 1056.092641 648.751504 589.020481 33.440324 -53.732460 -471.672248 -296.884630 3314.555541 4858.020611 2069.930704 2377.744848 1362.892827 875.697542 789.135220 171.619319 34.988075 -424.985497 -284.502672 3760.844364 5285.601823 2526.618697 2746.032218 1730.644374 1158.841900 1037.936229 351.370719 152.886004 -362.604127 -257.300589 4264.647828 5755.098772 3038.540050 3164.030240 2149.704840 1491.351119 1332.208832 571.489422 301.180042 -280.195360 -215.560663 4809.622638 6249.389408 3579.964026 3616.299545 2602.866137 1859.789630 1661.227092 823.133671 475.218896 -177.933743 -162.011495 5368.612552 6744.233173 4127.135040 4084.481353 3069.096132 2246.628663 2009.094903 1093.519993 666.836809 -59.395277 -100.322301 5913.186165 7222.226684 4659.036859 4546.760184 3526.455144 2633.210664 2359.431020 1369.536585 866.546939 70.056838 -33.875196 6423.194624 7668.806466 5154.365194 4985.314381 3958.157800 3003.820323 2697.789269 1639.386267 1065.515846 204.835922 34.805885 6884.911556 8072.182694 5600.389395 5388.625902 4352.353313 3347.661165 3013.767892 1894.202037 1256.625841 339.719333 104.108574 7269.272812 8406.218413 5987.004151 5749.656038 4701.119370 3657.972630 3301.584500 2129.076455 1434.908727 470.023288 173.077033 7691.384533 8680.397408 6312.056377 6067.508162 5003.872555 3932.899074 3558.191439 2341.396750 1597.550421 592.017437 241.026949 7976.976342 8914.715709 6582.967788 6341.818986 5263.581766 4175.841078 3783.730795 2530.066519 1743.356076 702.822247 307.139397 8222.353187 9116.049125 6812.640673 6579.438052 5485.330575 4389.876317 3980.180389 2696.208302 1872.448544 800.162814 370.257549 8425.233083 9286.656734 7010.234410 6787.239806 5677.070733 4579.730375 4150.324352 2841.729889 1985.300945 882.288892 429.078748 8608.653973 9442.705772 7188.403519 6970.853398 5844.737255 4750.354550 4297.503199 2968.890568 2082.758960 948.029679 482.142587 8782.819140 9589.110482 7355.207315 7139.393323 5995.474693 4904.523158 4423.331650 3079.079993 2166.189962 997.481546 527.880094 8953.692987 9730.190111 7513.306765 7294.986532 6133.741796 5044.994210 4530.127778 3173.306730 2236.367894 1031.612852 565.254481 9127.066683 9869.601359 7666.806079 7440.422023 6259.156946 5173.117748 4620.519024 3253.237664 2294.864533 1052.154185 594.000948 9321.808085 10026.191083 7822.599879 7580.847512 6372.025364 5287.967517 4696.789110 3319.527190 2343.555952 1062.391244 614.535693 9433.196099 10191.623939 7981.186863 7718.375693 6480.485733 5392.455083 4762.483285 3375.378143 2384.490823 1066.688998 628.034247 9625.812385 10355.748884 8146.228959 7854.966005 6585.893912 5493.754819 4820.985195 3424.669079 2421.328964 1069.996323 636.549039 9822.591578 10527.343733 8321.332194 7998.051769 6692.271636 5597.441437 4879.886404 3471.395922 2457.615579 1076.531248 642.739876 10035.695091 10718.428904 8511.276734 8157.699956 6813.228837 5709.079070 4948.869331 3524.435414 2498.119303 1089.722183 649.455201 10266.742065 10930.961344 8716.517203 8330.624586 6949.640458 5834.224757 5030.862264 3588.411579 2545.990238 1111.291973 659.259739 10537.055106 11175.388121 8959.794324 8540.254327 7116.892629 5985.538631 5136.228103 3670.609770 2605.358823 1142.761585 673.191175 10842.273705 11444.302239 9231.179246 8786.738434 7317.151112 6162.660135 5263.756100 3770.422078 2675.793003 1185.117756 691.964687 11221.916396 11777.082781 9556.441727 9071.237326 7548.933937 6373.023875 5418.537620 3892.931708 2756.705401 1233.948384 716.289385 11632.173222 12136.267707 9932.433528 9404.629095 7825.384042 6618.866132 5593.586245 4035.526658 2852.161996 1288.494327 744.269629 12105.646657 12529.676270 10336.629973 9741.761181 8114.009132 6877.451778 5778.200191 4180.341171 2948.102595 1346.445080 771.626597 12607.685610 12958.595275 10793.710256 10125.749179 8445.640922 7168.075652 5991.638342 4349.591855 3052.688519 1409.199995 799.999495 13099.080567 13363.482787 11226.760506 10476.035767 8747.037967 7418.592237 6166.693701 4494.754747 3144.305347 1462.124116 828.838227 13635.172382 13865.065882 11722.805773 10852.265813 9091.121704 7708.999511 6388.441351 4663.433518 3243.319255 1516.480083 847.386085 14015.343134 14211.075258 12097.221848 11172.427420 9393.291838 7926.599757 6553.070591 4802.867547 3335.905235 1591.116506 874.690027 14606.304377 14832.433707 12649.257547 11543.284785 9743.781753 8187.049130 6769.232524 4955.881663 3394.403097 1620.362147 881.851504 14740.714236 14985.350560 12891.883981 11786.804239 10054.850131 8414.532326 6956.123816 5134.341801 3558.860929 1762.507559 909.883277 15430.680636 15732.568813 13447.703490 12195.510715 10407.473691 8703.027601 7247.557129 5287.387973 3550.327542 1767.422150 947.667112 15411.197090 15885.405202 13683.134431 12431.014453 10686.509357 8811.950344 7353.086504 5521.931861 3860.714208 1998.090323 923.746737 15861.293509 16180.989011 13879.698231 12729.137552 11124.728587 9399.170033 7884.685720 5695.286962 3767.176947 2073.160469 1123.505953 16391.516224 17189.941659 14727.826569 13156.109737 11178.439195 9029.678643 7742.519791 6010.637322 4172.719397 2030.700880 1009.340668 15912.119620 16265.351032 14029.689015 13103.062393 12008.150103 10117.860486 8534.871994 5862.623838 4257.555977 2859.097756 1040.940705 17810.218677 18626.075335 16221.302510 14234.073224 11462.356726 9301.537317 8281.049296 6662.075002 3874.380195 2018.501531 1528.421458 16387.341351 17624.072207 13719.352547 14315.615010 13321.797911 11042.633831 8819.996333 6344.832588 5388.921447 2563.473021 1260.328854 19299.430264 19116.041276 17520.990409 14803.218772 11740.814449 9428.294803 9943.200487 6379.312009 3694.614110 3605.368330 942.416498 18831.883475 20141.469756 16512.839506 15725.679250 14766.057974 11774.541294 7488.437796 9084.015131 4468.452278 2994.439918 1556.168011 19479.851227 18839.702362 19808.993168 15527.610318 14111.614860 12760.139891 8814.931216 7232.876469 4849.074789 2777.518119 1741.271996 23310.968632 23227.756309 18189.404425 18521.226777 14893.843991 12580.047728 10215.120334 7677.459413 5525.288228 3941.412330 889.103781 22421.651370 19018.952759 24551.352423 15129.382421 14661.700006 10525.087711 10598.728916 7888.219321 3303.705114 3713.995803 1243.439308 25774.837850 21572.438194 23941.242704 21960.217237 14872.165862 13483.632401 10466.904681 6959.264577 4899.769512 6959.989767 640.679005 30253.248097 17841.730910 16707.075351 14603.094891 13208.028514 11798.825886 8798.007383 7629.493993 7882.672172 -673.356746 738.345002 32333.179676 29982.946410 26837.126134 23479.727951 20272.825307 17534.690095 14371.898021 11051.612409 7666.950612 6212.352867 3719.168296 1940.266236 1946.697675 -2568.559451 30360.401660 26356.026384 24185.676902 21203.679915 18518.694595 15578.419618 12546.114438 10192.622373 8072.926777 6023.234972 3459.194929 4650.022910 -1032.326553 541.381916 30320.896961 27637.751705 24952.294119 21702.829672 18946.746488 16264.347954 14075.550513 11555.318947 8996.570864 6763.423950 5058.119285 2001.134000 1278.025313 999.607223 29633.699552 27024.090322 24259.098237 21704.462450 19518.955327 17004.912829 14575.242614 12089.801813 10110.083844 7462.223851 5328.621670 4482.707854 2025.590084 828.028210 29060.349400 26147.298501 24156.904152 21539.077426 19277.638333 17034.644492 15096.207745 13245.686930 10790.786379 9004.841732 6887.782515 4186.832841 2366.923562 1287.750877 26951.038830 25246.954118 22972.298806 21358.420437 19849.497986 18231.900845 16166.175903 14258.111203 12702.391642 10534.891440 8112.987591 5885.625051 3146.369208 1575.477354 27137.558917 25778.894615 24127.392789 21931.277965 19784.901301 18116.280071 16850.141896 15122.900695 12961.824844 10991.569956 8652.435969 5831.083285 3045.167193 1663.794691 26302.308384 23033.723619 21621.940488 20973.072473 20175.540047 18137.324956 15692.808866 13867.537565 12566.062836 11247.017548 9224.024880 6714.136313 3535.463150 1985.830879 29475.295835 27124.471061 25663.615839 23622.184304 19162.553165 16996.567241 16007.292394 14453.722685 11983.708443 10111.271969 8372.515703 5902.247917 2742.559223 1647.687207 20753.862191 25311.018543 21573.219740 17651.283995 17238.797699 17210.269614 14076.093180 10819.077016 9278.711809 8600.115343 7546.356562 5797.634134 2618.122670 1592.762851 25554.640694 18063.730537 19562.087780 20058.986417 19105.470331 15929.519405 12550.595595 11237.700707 9857.545943 8079.555645 6964.008073 4532.801946 1278.480847 1365.740863 25611.396157 14876.776962 19466.279100 16798.521803 13959.671487 12913.044939 12134.989050 10974.209456 10235.039647 9258.473926 6562.920112 3194.541515 1988.485117 1036.424031 11747.067362 16762.446958 16710.343212 10069.477943 8489.181187 8759.263472 9389.012535 8125.121255 7167.973508 4864.127797 1442.443764 1146.682135 1219.676434 1281.397845 1353.240049 17603.557690 11697.000649 11231.280192 8604.947427 6424.850184 -1562.158701 8050.295082 7133.290359 7268.948031 447.606023 3304.194083 3041.870759 1615.990912 5953.431896 6441.653298 10191.175000 -4377.678983 -7989.887998 1672.675789 18794.901286 8667.022272 4148.937872 18144.894527 10874.569438 330.497917 3544.938125 1958.163986
</DataArray>
<DataArray type="Float64" Name="Velocity" NumberOfComponents="3" format="ascii">