<VTKFile type="PolyData">
<PolyData>
<Piece NumberOfPoints="1945" NumberOfVerts="1945" NumberOfLines="0" NumberOfStrips="0" NumberOfPolys="0">
<PointData>
<DataArray type="Float64" Name="Pressure" format="ascii">
 12188.471105 15121.134619 15640.768990 20136.619194 16936.102808 20236.476488 16902.833162 19773.558693 19080.379714 22622.135600 21512.171386 24862.619156 21132.083255 24194.791198 21682.774258 25367.762131 20362.551968 22917.289811 22152.040285 25735.527374 22981.629887 26333.144761 24749.837781 28149.740426 24917.777229 27138.014000 23680.530559 24916.908691 21943.082628 22552.092296 23970.251128 25732.272407 24383.813666 26649.156005 21915.910815 23018.421189 21593.713810 24068.704014 21316.921920 23778.274187 20847.599498 21933.836905 24967.443688 25489.552378 23088.921802 24160.450492 22129.523027 22305.499883 21915.631260 21466.041464 24406.407561 24213.942245 25785.004506 24769.520732 23481.964158 21841.653828 24170.430169 21841.858243 25374.532249 22152.729792 24927.418723 20892.466141 26408.370180 22708.371007 26134.808447 23013.696238 24369.296963 21271.698065 24162.074162 20288.884304 23785.470314 20419.516563 23734.710407 20194.219831 23134.362281 20163.409969 22624.657155 19309.486059 22466.224170 18756.448247 22490.622390 19198.051536 21911.659738 19038.670199 20135.989927 17016.944787 18957.786360 16202.298697 17557.735708 14788.046729 16881.829591 14187.591890 16437.496698 13944.848410 15808.060602 13491.543969 15088.504965 12879.965961 14341.704115 12236.966583 13668.059228 11628.436407 13050.315295 11038.888941 12505.438444 10543.897243 12001.060885 10069.026041 11524.105046 9580.854409 11068.474430 9080.209308 10631.336086 8573.854649 10202.041588 8059.629681 9778.845674 7549.163552 9363.556830 7048.871601 8964.577045 6578.748961 8586.632889 6151.004486 8228.974634 5763.184921 7895.793405 5415.858462 7593.644191 5106.904024 7335.425416 4838.248812 7134.889073 4605.912547 7017.419485 4422.464534 7009.728577 4308.599654 7133.330848 4288.126057 7403.725400 4386.653345 7821.985845 4616.302151 8381.062315 4981.185469 9062.220103 5474.586075 9827.136980 6053.015136 10660.444386 6720.452420 11519.153129 7434.827447 12378.271237 8169.344967 13247.303611 8982.857868 14073.194460 9777.528018 14904.764717 10669.253792 15697.280296 11564.456907 16468.237101 12490.900912 17204.018170 13423.872601 17910.050302 14325.144786 18559.890232 15197.203749 19182.843176 15973.611900 19783.280450 16778.778244 20318.171074 17321.051108 21050.176354 18147.836474 21821.574793 18581.530453 22488.430569 19256.855319 23327.343454 19712.367066 23918.210607 19532.884403 25456.512520 21728.156833 24202.420032 20705.062384 23258.828194 20543.561671 24419.850560 21189.567441 23720.406534 19374.620350 23989.681923 19510.109926 25948.977852 21379.895163 24689.531617 24084.183057 24691.360508 22493.829902 27469.737420 20356.429535 30502.850349 25011.613575 16665.332626 17165.050446 16707.930068 15644.192133 12627.978602 9191.854484 6077.346133 3417.311863 1995.058655 666.887096 206.696271 680.683333 1821.240174 913.268915 -3817.991605 -4561.819138 -4203.495743 -8065.804447 -8053.219918 -4845.497507 -5065.560893 -8686.594159 -8987.352215 -7735.356000 -6566.337165 -5594.636626 -4749.177763 -3999.477955 -3333.197124 -2746.216852 -2236.222208 -1799.856362 -1432.054896 -1126.401956 -875.771831 -672.901910 -510.790159 -382.929644 -283.428671 -207.061190 -149.276528 -106.183751 -74.517875 -51.591856 -35.237837 -23.741489 -15.773639 -10.323144 -6.634798 -4.158705 -2.541853 20699.320398 21086.603036 19979.278892 18422.171936 15803.342320 11760.254015 9068.727031 5003.645004 4157.916125 1770.834449 1215.020438 1811.625247 4022.264837 353.303168 -7697.236074 -6004.392632 -4587.747083 -9421.639227 -8452.383211 -4234.656820 -4105.609266 -7999.041968 -8755.419544 -7562.716150 -6566.510797 -5616.874669 -4770.838315 -4018.633503 -3350.823258 -2762.851947 -2251.865399 -1814.291974 -1445.076498 -1137.899420 -885.736451 -681.399794 -517.932206 -388.848860 -288.265996 -210.957431 -152.367695 -108.597994 -76.373171 -52.994240 -36.280220 -24.503164 -16.320421 -10.707841 -6.896337 -4.309044 -2.477550 20559.865855 22311.629043 20431.737583 13590.014095 11905.738165 10481.040332 7693.548763 3688.498220 2054.516441 2016.631085 3988.367507 3675.285132 1948.499186 1026.560442 549.649979 329.320046 227.025676 169.676333 127.478854 91.964457 62.365966 39.287710 22.660115 11.596472 4.808698 1.005617 -0.883536 -1.641783 -1.789137 -1.643704 -1.385463 -1.107912 -0.854315 -0.640753 -0.469672 -0.337353 -0.237797 -0.164640 -0.112023 -0.074937 -0.049301 -0.031910 -0.020328 -0.012750 -0.007876 -0.004794 -0.002876 -0.001699 -0.000986 -0.000556 -0.000287 23824.598451 26148.569654 24293.170067 18888.166721 15920.625790 13820.871625 10827.886187 7290.899550 4758.329584 4526.982845 4366.460580 3236.003366 1997.369031 1103.676924 604.713486 358.625543 239.841021 174.570162 129.485128 93.285357 63.650050 40.555496 23.786042 12.491978 5.455520 1.434739 -0.620715 -1.493696 -1.713801 -1.611073 -1.375984 -1.109815 -0.860995 -0.648761 -0.477356 -0.344028 -0.243271 -0.168955 -0.115320 -0.077391 -0.051083 -0.033177 -0.021208 -0.013349 -0.008277 -0.005056 -0.003044 -0.001805 -0.001053 -0.000598 -0.000329 -1.627616 -1.237151 -1.480473 -1.139181 -1.031301 -0.873046 -0.594971 -0.583015 -0.358685 -0.364012 -0.216739 -0.222251 -0.130169 -0.133961 -0.077522 -0.079929 -0.045762 -0.047248 -0.026777 -0.027682 -0.015534 -0.016078 -0.008935 -0.009260 -0.005098 -0.005289 -0.002885 -0.002997 -0.001620 -0.001685 -0.000902 -0.000940 -0.000499 -0.000520 -0.000274 -0.000286 -0.000149 -0.000156 -0.000081 -0.000085 -0.000043 -0.000045 -0.000023 -0.000024 -0.000012 -0.000013 -0.000006 -0.000007 -0.000003 -0.000004 -0.000002 -0.000002 -0.000001 -0.000001 -0.000000 -0.000000 -0.000000 -0.000000 -0.000000 -0.000000 -0.000000 -0.000000 -0.000000 -0.000000 -0.000000 -0.000000 -0.000000 -0.000000 -0.000000 -0.000000 -0.000000 -0.000000 -0.000000 -0.000000 -0.000000 -0.000000 -0.000000 -0.000000 -0.000000 -0.000000 -0.000000 -0.000000 -0.000000 -0.000000 -0.000000 -0.000000 -0.000000 -0.000000 -0.000000 -0.000000 -0.000000 -0.000000 -0.000000 -0.000000 -0.000000 -0.000000 -0.000000 -0.000000 -0.000000 -0.000000 -0.000000 -0.000000 -0.000000 -0.000000 -0.000000 -0.000000 -0.000000 -0.000000 -0.000000 -0.000000 -0.000000 -0.000000 -0.000000 -0.000000 -0.000000 -0.000000 -0.000000 -0.000000 -0.000000 -0.000000 -0.000000 -0.000000 -0.000000 -0.000000 -0.000000 -0.000000 -0.000000 -0.000000 -0.000000 -0.000000 -0.000000 -0.000000 -0.000000 -0.000000 -0.000000 -0.000000 -0.000000 -0.000000 -0.000000 -0.000000 -0.000000 -0.000000 -0.000000 -0.000000 -0.000000 -0.000000 -0.000000 -0.000000 -0.000000 -0.000000 -0.000000 -0.000000 -0.000000 -0.000000 -0.000000 -0.000000 -0.000000 -0.000000 -0.000000 -0.000000 -0.000000 -0.000000 -0.000000 -0.000000 -0.000000 -0.000000 -0.000000 -0.000000 -0.000000 -0.000000 -0.000000 -0.000000 -0.000000 -0.000000 -0.000000 -0.000000 -0.000000 -0.000000 -0.000000 -0.000000 -0.000000 -0.000000 -0.000000 -0.000000 -0.000000 -0.000000 -0.000000 -0.000000 -0.000000 -0.000000 -0.000000 -0.000000 -0.000001 -0.000001 -0.000002 -0.000002 -0.000004 -0.000004 -0.000008 -0.000008 -0.000018 -0.000018 -0.000039 -0.000038 -0.000091 -0.000071 -0.000155 -0.000108 -0.000188 -0.000134 20228.143869 22136.464224 21085.992393 20842.687322 18702.277293 16863.591198 17141.021928 14808.230902 14612.842822 11662.502425 13027.843013 24061.697270 20563.028349 22513.967920 20496.272561 18025.885678 18423.063716 17336.817570 15493.666250 14429.491699 12923.523568 11612.244569 24733.229840 21020.224863 24605.167061 20666.595798 18663.685730 17726.917496 14357.440552 14771.236419 14751.550131 13943.503105 14456.430831 21748.676136 25503.579148 22004.897114 22248.958808 19441.788026 21128.870660 16688.740821 19142.340115 14642.630077 19956.008002 13949.640972 26850.782194 24281.670792 24144.605035 19927.255216 21284.980625 18372.638227 19873.635202 14617.909885 19143.379274 15830.224331 15305.247157 24223.683382 25843.411948 23785.579804 23901.176684 22727.375567 18475.121072 18985.230527 17045.535696 19931.906171 17063.476746 17175.923543 23266.870834 25144.344280 23244.475544 21402.981277 21839.997243 19027.561182 20631.936279 18974.163950 16570.497283 17617.659038 15733.627066 22127.407936 21987.990466 23742.195727 23692.959860 22934.625914 21167.613365 20292.737448 19174.252649 18838.769357 17069.862006 16124.307928 25448.431382 27397.895331 26128.374357 22302.622180 22001.463048 18914.404381 20498.852282 18085.563593 16552.046694 17073.125532 17313.893430 24435.836080 24023.380998 22166.376022 22920.110321 21194.231279 20796.661088 18508.842203 18393.748680 16298.931318 16126.459596 12899.114330 23720.870265 20228.405091 22371.083595 17656.783582 19479.540920 15710.524744 18182.522821 15815.328050 15086.338903 12804.541783 13519.244332 22341.522496 22233.646485 21620.035961 20923.787423 20023.503783 18409.373028 15328.210714 15463.894393 14130.563276 14405.882112 10565.734431 21287.150661 21082.337531 21561.267100 16640.055352 16590.743266 15476.858223 15960.413505 12831.326219 14026.402627 10562.306231 9446.252165 23112.620831 22504.107531 17514.606532 18721.714406 18357.393534 13869.203184 13997.780837 12199.616563 10878.586222 6796.003163 4124.726666 24413.062938 19931.725491 20023.748439 18645.348221 17241.396755 16103.192136 13588.082837 11958.401147 7227.870719 5826.458387 2349.435588 20690.422345 19760.564152 18547.838339 15462.344317 14379.344923 13345.168239 10571.726213 7455.798976 3366.507229 -1184.054989 3500.179971 21488.441145 20190.011314 19338.318083 18261.071860 15650.874879 13660.516596 10252.766770 8547.159889 2753.430633 811.297596 24649.873985 21852.646577 18388.569115 18435.867525 14364.242527 13876.776467 10929.057648 6464.726213 4282.684125 2712.435615 796.058851 33508.894340 20553.449113 18572.636955 18505.391003 16375.466117 14599.220820 10817.870571 6435.775326 5951.997824 3390.787458 2299.512168 31230.471812 20121.631885 19793.256114 17569.412130 14837.447182 12823.642475 8879.732905 6457.033868 4753.136580 3471.855298 -3999.799682 -3324.392397 19198.342211 19173.395053 16644.048788 14972.562936 13615.978001 9105.422999 4385.309605 1000.398178 2906.476784 -3608.653561 -2522.530797 18551.201972 18806.955361 16720.661055 13922.559161 9019.031961 9664.219210 2882.689715 4689.104775 2329.126239 1178.253581 -4695.309016 19349.812141 18659.626456 16924.117649 13854.191745 9182.823600 7291.262121 7501.035452 2720.770929 2075.392949 2592.066569 3107.958456 17821.417523 17283.819835 16130.046316 12177.542919 9745.116925 5027.114416 8678.293244 3917.174075 1162.896732 1106.470692 -1984.731289 17875.628955 17441.862409 15796.523173 12284.804036 9626.173160 6070.434532 5671.199806 883.009432 2081.052443 2131.277558 3840.379804 17693.022459 18082.504361 15257.474609 12133.715411 9288.663098 8203.118781 5039.361614 7204.834517 2076.276167 2318.392858 -1880.195180 17163.713393 16732.587179 14861.229583 11899.149945 9010.785394 7182.877645 5903.334808 5239.101326 1891.181496 -101.409587 -1511.177394 16884.971180 16867.790573 13735.303040 11560.363576 8114.679409 7504.716210 7164.509730 1943.119589 3101.290789 1350.141042 1169.599440 17240.625453 17281.877690 12983.936091 10924.051280 8765.046446 6736.491071 6446.516877 5870.023839 3611.529874 3217.940468 1301.195187 16078.751528 16716.056000 12910.873301 10262.147927 8564.473225 6832.545563 5684.794851 4923.002000 4197.976792 884.950391 1982.948842 16092.293955 16275.283058 12678.957159 9736.887597 8295.569997 5807.462543 5639.149043 6080.940138 2255.608283 1268.867430 2288.661716 15941.724890 16080.868269 12270.852605 9632.604092 7933.818642 6429.236805 4400.890616 5340.144890 3129.503073 2704.015399 1726.860206 15533.291716 15655.132699 11995.406909 9796.756411 7277.260180 6688.813646 4914.958705 4684.303070 2581.339409 2491.048211 848.130174 15318.737571 15532.859318 11661.958842 9953.981882 6901.518392 6436.678109 5452.571808 4438.676888 2674.323285 2244.544310 386.175658 14117.110829 15241.299318 11189.043438 9858.691131 7214.051206 5902.424229 5451.156357 2809.557066 2665.723738 1765.833073 -1489.261381 14771.446150 15275.494469 11039.800121 9517.299843 7657.833017 5297.440185 5464.785644 1571.689126 3253.702507 2264.628231 1193.900499 14100.222272 14699.697617 11189.646845 9154.141759 7846.317213 4922.738013 5488.219887 1841.866301 3922.568862 2799.427408 3303.665649 14173.689084 13879.023553 10920.658862 9022.982215 7845.508394 5046.833612 5368.245185 3036.771530 3907.247491 3135.667010 4776.107700 13938.774632 13384.552324 10621.523848 8883.290043 7614.310838 5717.187810 4894.947716 4171.411410 2517.326782 3896.620624 5247.565975 13561.311758 12785.972360 10326.519199 8878.521922 7070.654106 6440.393625 4080.192598 4941.215991 798.020387 5352.293148 4635.609167 13653.430373 12009.611348 10001.544958 8730.980122 6660.197735 6464.737525 3646.433625 5206.598534 -125.661494 5961.924440 3610.730633 13009.813748 11664.293543 9625.831554 8448.750524 6409.415541 6290.959600 3582.848405 5037.859841 71.587603 5673.836710 1990.543632 12681.431490 11391.870437 9356.744150 8061.153525 6315.765154 5839.135516 3858.795834 4732.902426 900.231520 4710.090331 953.075061 12429.660606 11107.440916 9152.849586 7690.530303 6270.261110 5339.455607 4163.174262 4103.879153 1669.263698 2851.434399 334.618543 12154.612393 10676.932741 8986.725508 7353.101378 6246.269771 4926.889213 4360.297740 3472.401676 1877.977350 1743.866712 380.981668 11644.532129 10200.488740 8789.105401 7100.619188 6217.535676 4663.838750 4521.657780 3020.519499 2192.031919 1429.622640 1328.785836 11238.549508 9760.085457 8558.111440 6940.888359 6127.954463 4584.224451 4619.375623 2779.438265 2884.576781 1467.925248 3052.119513 10872.279207 9351.812239 8245.132122 6836.540168 5950.617879 4639.131350 4546.033994 2671.930314 3577.670739 1283.126285 5003.946162 10442.004924 9041.679817 7972.653716 6720.094362 5722.832314 4720.462942 4218.080624 2680.504139 3834.497983 877.871152 6480.144004 10129.495875 8606.938563 7640.698529 6574.471740 5488.728475 4750.651061 4010.073259 2856.739819 3725.839178 672.227408 6890.442906 9781.943263 8264.058657 7308.787854 6385.339594 5260.380004 4739.137220 3886.163812 2961.797306 3430.414655 742.220527 6261.763429 9334.271774 7858.679144 6901.776122 6154.253418 5030.375266 4683.064524 3808.528400 2991.331523 3134.390984 914.868093 5128.520021 8778.568957 7464.875074 6448.527102 5864.695641 4780.848923 4544.811032 3735.131560 2970.192741 2959.720946 1090.733863 4067.736468 8170.262211 7015.388605 5953.115533 5490.493774 4489.317672 4301.066821 3624.476670 2878.466023 2672.639704 1204.835819 3296.862316 7536.135158 6525.042533 5423.825933 5028.966915 4127.469257 3939.216610 3432.006347 2703.690911 2496.746559 1385.064750 2771.703140 6899.410137 6000.831080 4871.169795 4497.147185 3697.324415 3481.114796 3133.129563 2459.363318 2302.547102 1417.937226 2398.304299 6296.195835 5465.671156 4318.836812 3928.011740 3221.875666 2977.496381 2754.312176 2166.110700 2082.273475 1452.426100 1982.268910 5730.495913 4949.323842 3792.814921 3359.690273 2720.315547 2456.697067 2314.022908 1834.872005 1841.335349 1398.071887 1542.423555 5244.077869 4474.045133 3312.048626 2825.301419 2222.462486 1938.842869 1823.602545 1454.732322 1537.717276 1213.858370 1073.813374 4832.976853 4052.703811 2884.369046 2348.074386 1748.374178 1446.376513 1312.061288 1041.160639 1171.697605 912.149336 614.287046 4496.211755 3691.975564 2513.130563 1946.182118 1315.869868 999.296627 809.999890 614.025621 761.110929 529.438211 201.792366 4191.517143 3376.581131 2201.675490 1635.523680 953.778655 623.031362 364.001545 213.589694 346.633260 129.054458 -121.387682 3981.696293 3130.797435 1963.269808 1423.601140 685.828015 348.748801 28.089915 -101.367711 -4.801298 -207.688095 -321.679911 3844.482864 2960.485399 1798.074037 1312.169845 529.952013 201.656489 -161.490182 -286.286096 -238.350225 -422.858254 -391.010083 3757.144869 2865.893260 1706.574522 1294.449242 488.335968 186.207960 -196.077915 -322.604681 -325.694804 -492.659634 -346.861467 3711.252298 2839.555826 1681.834472 1348.854296 543.771941 282.100134 -99.073311 -228.085978 -276.867008 -431.757980 -227.451767 3701.988719 2873.283488 1714.033837 1449.230258 662.083866 447.290231 79.172645 -49.653904 -133.849369 -286.912900 -79.733934 3729.733699 2955.927605 1796.132943 1577.495514 808.998722 636.084672 282.069459 152.950296 45.884462 -115.483776 54.448973 3812.686288 3095.792581 1922.174028 1719.091812 959.922583 811.983225 465.211087 331.362131 211.082158 33.691972 149.785973 3974.752666 3295.558393 2111.352356 1881.311586 1112.252579 964.831509 608.669216 462.128468 333.504491 134.641040 200.616384 4223.978304 3577.189341 2362.998931 2081.935334 1280.402768 1107.134099 724.537406 551.553613 411.921874 190.839737 216.734963 4588.275248 3946.669679 2697.473133 2337.878685 1490.134522 1265.411239 841.481900 626.975021 468.136141 223.315644 218.283264 5049.299824 4413.867099 3129.327420 2679.136310 1774.260172 1475.872568 995.585639 724.217834 534.237401 258.033566 226.905859 5598.899058 4978.665217 3634.989146 3108.187631 2138.813611 1754.967153 1214.829027 872.512848 637.436380 319.775435 257.936879 6261.171740 5633.815856 4261.334359 3641.174947 2606.620599 2124.462183 1513.861872 1082.798655 789.213928 420.303631 318.093671 6946.250172 6378.868443 4927.141286 4251.092678 3150.089923 2573.481536 1892.238633 1360.560615 993.794050 560.082962 406.635454 7772.133573 7179.945595 5703.252766 4946.472789 3767.392791 3090.441565 2326.604506 1684.967397 1233.822459 727.269674 516.723682 8583.431905 8036.308941 6499.871150 5693.418848 4441.939935 3666.960178 2813.473628 2050.605218 1502.287059 911.736691 639.875887 9502.515399 8906.193981 7361.812049 6470.257658 5128.892357 4248.076391 3306.049044 2424.601664 1776.766050 1093.929853 768.470219 10428.013776 9839.781541 8239.482389 7297.250684 5864.039969 4885.504139 3825.994210 2813.385226 2058.936438 1279.709616 894.771667 11373.191777 10681.385185 9115.761372 8081.277562 6554.054614 5480.803951 4327.958217 3199.516925 2331.540342 1452.003428 1021.398069 12340.027943 11665.321091 10064.387419 8930.531859 7316.200353 6142.706022 4852.382609 3591.177889 2620.013379 1633.857290 1137.137041 13218.002288 12435.828184 10858.377459 9698.257290 7989.162981 6737.174533 5345.390307 3984.494555 2890.556205 1824.576970 1273.069548 14170.996822 13387.214394 11854.134902 10479.148627 8752.197095 7393.735903 5897.001253 4412.950526 3198.331406 1997.317960 1387.604068 14839.895477 14076.829819 12485.380781 11184.745562 9373.673281 7937.321906 6328.022936 4760.001721 3486.682962 2260.470565 1544.736387 15797.651858 14978.685944 13316.373031 11878.696624 10021.488954 8559.325046 6879.676049 5229.872997 3727.180621 2339.775774 1693.103983 16154.917192 15295.547966 13988.795907 12447.489289 10598.450573 8954.133918 7186.680888 5491.002238 4153.105900 2721.116429 1847.129336 16977.565612 16398.892354 14420.223793 12827.965179 10941.819532 9371.645387 7674.412389 5676.177437 3934.028354 2708.135605 1890.776680 17227.907960 16412.947926 14820.847838 13546.621856 11512.940487 9625.705414 7666.110405 6350.632695 4642.342249 3071.153695 2117.007800 17463.471143 17338.848485 15373.653021 13442.703600 11494.341228 10141.853032 7910.832759 5471.822869 4291.782269 2307.064703 2540.664021 18165.041146 17236.454822 15636.186257 13943.820310 11661.401043 9546.238284 8427.575186 6526.116753 4596.487483 3595.917329 1336.244853 17628.353658 17976.696470 14686.548730 14766.125088 12059.565033 10065.240237 7647.468739 6168.143759 3855.109818 3520.837090 2308.483866 20849.543979 17875.812792 16702.901993 13806.822498 12880.513321 9911.490697 8098.324484 6441.604113 4748.435108 1724.636870 3023.588418 17953.139811 18275.183251 15846.413055 15309.749989 12128.743464 11621.090500 9061.554803 7422.637254 5046.215592 3307.225830 1936.366772 20989.019907 18050.981555 18365.096274 12972.811320 12633.513474 10237.366304 8203.262413 6035.564082 4389.592445 3320.955025 1671.432129 17983.864065 18809.360282 15418.287880 16526.907342 13771.214772 13025.254957 8763.679906 8014.030192 5073.722020 2736.676427 1961.313658 19597.006141 19746.504211 17102.626204 16136.494679 14235.057018 10750.885089 9775.636090 5610.376953 3653.862814 2500.079590 2328.557195 19561.013053 19806.121526 17010.394565 16140.900761 13993.973444 13910.324651 8946.992847 8586.106805 4960.373717 3306.962291 1199.085752 19022.758857 19014.961484 18734.324102 16257.003513 13588.182405 8546.083977 7903.015575 4377.664902 3025.977506 2149.428056 1159.462682 18206.112335 20294.256892 17059.222210 20586.370551 14535.859987 12193.838863 7712.614657 5941.527162 4573.805366 4769.552522 49.795325 24496.288581 22705.414775 16810.886667 13688.124547 12060.677859 10542.662258 9910.847417 6342.482890 4390.540196 2250.117691 2122.339367 10730.645144 9721.880376 8301.229091 8299.501762 6968.474210 6187.499560 5786.506950 4695.193957 4370.514026 3224.441654 1691.106197 -48.057465 -4939.249194 -6503.368770 10356.463619 9189.961171 10966.058222 8417.280748 9088.177162 7256.191738 7300.939029 6007.206850 5619.295958 4473.438141 3886.497384 3250.110754 1049.368179 2341.800337 11544.709278 12290.090569 10326.947205 9687.802556 9349.568371 8713.903272 8177.435653 7674.406256 6424.493553 5652.310235 3396.577921 1562.649914 1110.682674 1210.279289 13784.916480 12794.238386 10431.574559 14227.943577 11201.483552 10621.375030 9889.104991 8766.464404 7494.997522 5714.663110 4578.803385 2768.547919 2066.019262 1789.367040 15748.515768 16632.440750 14211.978338 13657.905599 13830.347047 12039.886905 10768.579442 8856.131685 7976.114909 6507.546490 4699.102083 2710.421206 1817.440428 1338.285355 12526.501922 14887.348273 13000.889741 13142.278831 12654.407604 11434.526302 9107.425145 8593.888405 7505.694261 6073.469501 4889.093870 2992.626198 1946.495025 1481.922221 18779.110152 14209.467347 12023.963614 14069.972533 10988.985734 9961.310419 8939.171218 7956.185718 7389.137784 6167.332979 4450.097708 2685.166104 1927.383326 1576.841540 12592.977465 13931.540956 13954.500868 12289.376278 11670.456677 11070.421183 9783.267503 9413.988051 8822.481100 7110.533278 5404.261342 3676.275216 2701.366648 2093.815257 16377.257624 13059.257043 9186.627602 13712.077557 11860.870894 9118.653637 7910.435861 7816.824768 7048.068556 5658.938629 4101.441235 2282.559939 1664.872419 1610.354043 13451.986916 11815.602878 11306.571180 10610.027142 11991.647453 8876.762227 10135.029054 9756.809200 7645.841815 6505.469558 4699.888993 2735.795440 2127.117761 2834.626703 10410.150407 10308.681370 9796.911312 8398.260948 9032.980684 9686.138268 9893.115873 9557.023415 6597.410326 5807.211994 4084.305737 2569.839592 2826.267013 2737.898815 11457.594538 5389.533938 8537.813032 9691.931390 5269.299025 4733.593456 6206.814243 7385.848303 7687.580976 4834.430137 3392.810540 3354.894505 1836.096970 2240.674127 5589.420888 4678.196527 -317.286935 6129.152944 2626.742422 3205.194803 8865.262612 6800.163007 5939.561299 5302.096998 3628.661183 3807.094761 1709.538101 2219.871475 2105.717289 580.578182 1963.948662 2346.626466 3354.805645 136.161566 964.587589 1790.428424 4833.936948 4401.872746 2722.576917 4847.673983 1629.004161 2603.513817 4766.695150 -2100.262450 5355.956360 2893.005504 -3249.046913 -419.492231 6456.374478 -578.703291 1263.382959 -9.496895 3389.019274 1626.210144 1090.525899 2080.985479
</DataArray>
<DataArray type="Float64" Name="Velocity" NumberOfComponents="3" format="ascii">