<VTKFile type="PolyData">
<PolyData>
<Piece NumberOfPoints="1945" NumberOfVerts="1945" NumberOfLines="0" NumberOfStrips="0" NumberOfPolys="0">
<PointData>
<DataArray type="Float64" Name="Pressure" format="ascii">
 31101.322679 27082.147397 32788.676916 26854.878359 31473.507767 28952.700789 27049.921612 27248.555469 25019.430932 25269.093325 26248.238458 26623.090262 24759.025935 25466.329391 26066.783942 28523.471460 24494.135056 27275.904117 27821.333373 27388.297836 27370.011335 24996.706068 25898.364550 27431.948282 26781.741694 27837.389564 26738.435701 27067.275172 25543.385360 26855.176257 23899.623232 26015.949910 24128.521460 24435.203771 25420.192700 24758.825791 24275.587086 22659.083146 23822.678783 22453.486923 25078.504854 23822.621586 27867.734255 24576.743684 25890.383376 23752.451931 26614.010380 25309.866026 27208.689111 25295.613929 24435.057825 25545.440429 20061.683782 20217.739100 21662.764124 21624.716709 21039.657951 20279.485741 20423.506272 19875.121872 21083.005451 20307.381385 21797.988203 19080.315630 21557.840163 20898.233135 20840.180815 18865.884869 22583.114630 21364.944936 22415.052691 17921.969599 20594.625264 18046.323140 17835.379386 18984.107614 16604.020899 17178.577092 16919.203414 17842.881777 16466.131019 16593.880234 19584.834057 19746.043592 19627.096349 17081.111936 21638.697906 19266.880171 20201.026740 18832.046717 19071.996254 18346.525529 19116.632359 18990.982238 20187.332922 18897.452588 25105.795412 21706.384713 23620.609490 19836.462138 18780.186026 15996.744733 20181.745150 17762.310456 20700.752635 16853.723633 22461.516038 20439.372256 19100.429707 18291.259657 19656.067341 19664.305293 18136.924773 18393.979946 19171.686895 18583.296102 19224.806661 17367.291984 17468.736798 17259.410685 16615.060622 16906.766920 16687.839317 17228.562458 15249.963653 16025.791685 15422.267369 14800.495978 17749.412720 16773.242263 18595.630954 17084.979501 18639.363923 15407.008844 20532.710212 17498.425128 19732.325720 16133.437285 21184.459859 17653.831401 19365.704281 15746.194026 18217.342522 14557.307344 18784.866757 16117.514228 18544.587920 16255.674211 16421.014871 16098.782777 16964.997028 17295.857622 14928.420449 13868.547711 17130.840899 16789.000124 16993.090111 16560.662828 15844.123179 15087.078731 15662.273630 15541.443273 14077.162771 14490.057996 13942.752818 14679.618319 14684.634488 14658.943620 14535.132608 14508.283217 14260.569945 13815.371302 15030.797878 14417.534506 14747.422241 14986.588281 15227.513552 15643.803086 15104.320133 15798.137103 14286.542960 14665.900380 15597.243428 15802.435036 15934.926647 16339.688455 16552.286478 16075.351478 17558.480992 16157.585439 17149.233867 15672.141329 17838.380675 17452.249005 15733.531023 15601.341638 14647.468118 16185.520071 14329.179797 15556.581256 14921.356100 16320.519437 14012.113572 15838.872033 16567.768013 16075.747680 18179.108644 15905.653257 16311.790264 15168.382282 23132.138639 23948.919949 24519.814840 23798.477623 21893.702841 20282.638029 19543.839809 20066.236452 18904.314457 18184.255626 16468.548963 14795.659624 12563.904984 11719.803702 10739.045683 9376.793004 8709.669739 9095.414689 8295.972757 7952.343537 6712.241970 4488.076031 2389.457408 516.539592 -1036.861084 -2146.086993 -2900.939024 -3392.889882 -3688.116338 -3837.733458 -3881.086597 -3847.973631 -3760.609826 -3635.375777 -3484.284674 -3316.146724 -3137.452992 -2953.024099 -2766.474792 -2580.541175 -2397.309150 -2218.373678 -2044.950591 -1877.956307 -1718.066046 -1565.757978 -1421.349927 -1285.043645 -1157.052405 -1038.243621 -934.303299 20661.937873 24770.219121 24925.067617 23707.025463 22140.330832 20297.924089 19089.831664 21498.636025 18511.488086 18802.519141 17377.814897 15365.493473 12612.216590 12928.124422 12179.256374 9784.122037 7064.656485 11274.900575 8564.395530 10961.678175 10422.325073 5183.334274 3337.058930 910.056788 -960.137511 -2078.390118 -2847.771809 -3352.073064 -3657.361484 -3814.987635 -3864.563960 -3836.181353 -3752.353353 -3629.734320 -3480.568278 -3313.848203 -3136.203430 -2952.555818 -2766.592604 -2581.101103 -2398.203211 -2219.519268 -2046.283205 -1879.424566 -1719.628177 -1567.378441 -1422.991158 -1286.624150 -1158.195302 -1036.770501 -916.593931 13133.236396 13100.445344 12852.762227 13686.382343 11764.543560 9287.819522 8696.417169 7784.174252 6675.971248 7957.744821 4515.455501 917.721652 1320.181055 1504.709142 1457.838979 1336.282202 1134.195009 875.441399 593.213849 316.626352 64.938922 -152.565956 -334.024694 -481.922328 -600.606264 -694.687971 -768.224297 -824.435153 -865.725944 -893.847096 -910.089138 -915.461405 -910.833538 -897.035733 -874.921577 -845.400152 -809.444574 -768.083602 -722.382067 -673.414933 -622.238879 -569.864442 -517.230988 -465.186052 -414.469972 -365.706108 -319.396066 -275.916231 -235.494958 -198.048139 -162.129072 14025.039470 13908.234718 13216.719194 12860.061238 11454.769778 9809.762987 8715.883286 7769.504195 6471.185852 5238.573579 3740.517878 2436.152534 1759.193689 1549.607078 1456.224921 1323.323649 1122.566986 869.222444 592.628098 320.207764 70.848340 -145.856292 -327.507838 -476.097490 -595.622714 -690.494844 -764.684649 -821.396971 -863.058280 -891.453201 -907.906739 -913.457051 -908.995067 -895.364925 -873.427877 -844.095724 -808.340661 -767.188062 -721.697903 -672.939636 -621.964419 -569.777743 -517.314735 -465.419719 -414.830981 -366.171244 -319.944355 -276.541033 -236.273165 -199.554567 -168.030851 -859.683495 -825.255848 -831.373301 -798.437016 -759.466823 -740.880668 -670.692293 -668.356260 -595.789267 -595.964756 -528.548309 -529.111222 -467.708578 -468.300955 -412.732137 -413.295426 -363.203312 -363.728152 -318.728744 -319.214229 -278.924600 -279.371494 -243.417295 -243.826871 -211.845951 -212.219752 -183.864666 -184.204420 -159.144324 -159.451893 -137.373927 -137.651265 -118.261504 -118.510615 -101.534618 -101.757525 -86.940545 -87.139260 -74.246151 -74.422648 -63.237520 -63.393716 -53.719377 -53.857114 -45.514349 -45.635381 -38.462090 -38.568076 -32.418323 -32.510816 -27.253811 -27.334257 -22.853293 -22.923029 -19.114414 -19.174668 -15.946654 -15.998546 -13.270282 -13.314831 -11.015350 -11.053473 -9.120727 -9.153250 -7.533192 -7.560852 -6.206578 -6.230030 -5.100987 -5.120812 -4.182059 -4.198767 -3.420305 -3.434346 -2.790508 -2.802272 -2.271173 -2.281001 -1.844039 -1.852226 -1.493646 -1.500447 -1.206945 -1.212579 -0.972957 -0.977611 -0.782475 -0.786309 -0.627801 -0.630951 -0.502519 -0.505099 -0.401296 -0.403404 -0.319715 -0.321433 -0.254126 -0.255522 -0.201522 -0.202654 -0.159434 -0.160349 -0.125840 -0.126577 -0.099085 -0.099678 -0.077823 -0.078298 -0.060956 -0.061336 -0.047595 -0.047896 -0.037013 -0.037251 -0.028620 -0.028807 -0.021933 -0.022077 -0.016549 -0.016656 -0.012126 -0.012203 -0.008366 -0.008414 -0.004992 -0.005014 -0.001736 -0.001731 0.001684 0.001719 0.005578 0.005647 0.010308 0.010417 0.016302 0.016460 0.024080 0.024296 0.034269 0.034556 0.047622 0.047993 0.065024 0.065492 0.087493 0.088071 0.116154 0.116851 0.152195 0.153011 0.196768 0.197692 0.250846 0.251848 0.315000 0.316022 0.389074 0.390017 0.471745 0.472458 0.559923 0.560185 0.647986 0.647485 0.726795 0.725106 0.782490 0.779052 0.795040 0.789133 0.736546 0.727262 0.569296 0.555517 0.243622 0.224006 -0.304400 -0.331435 -1.155322 -1.191594 -2.408644 -2.456196 -4.184939 -4.246007 -6.627599 -6.704563 -9.903991 -9.999300 -14.205789 -14.321863 -19.748235 -19.887334 -26.768118 -26.932145 -35.520314 -35.710340 -46.273292 -46.487473 -59.306798 -59.528665 -74.932736 -75.059839 -93.656367 -93.083256 -117.390954 -112.175562 -137.535486 -128.042936 -146.002223 -136.059695 26649.070180 28279.359683 20582.502469 26904.810696 24455.396159 19428.136265 25502.972320 21728.928418 21643.784442 19750.406091 20973.921903 23656.602709 23412.286974 22666.617377 27776.584332 15614.201103 10570.763310 19062.195039 17115.535212 16436.196434 19917.151759 17464.725546 25923.620362 22233.951967 24613.209639 22994.474923 24770.476120 30007.388418 17784.033606 21689.592420 17935.755754 3051.988392 21457.238109 29124.583954 26622.659201 31036.105391 13408.199541 24052.805539 26043.431713 19680.169155 10799.165050 23709.309053 13798.080745 24593.893623 16650.537932 10137.104888 31295.877291 26194.293602 29563.398910 21330.802899 28655.207422 20209.162034 12545.145826 16937.304366 19167.785696 25466.327386 26694.399200 24913.447703 28191.065040 24348.692635 21123.715678 26684.583852 23508.734633 23677.329027 18766.346543 27355.505936 23938.141225 25230.652678 25227.504733 27046.527315 27480.602834 25844.464238 24225.336442 23477.609768 22511.352821 18740.319044 13023.066125 27054.768198 24921.592420 26637.327029 22693.776066 28382.888341 24394.820939 17725.868051 25809.380069 25781.210302 14041.112871 16576.197727 26592.453269 25966.700523 18349.662344 25288.330861 24496.497184 18192.842988 19033.469051 26198.042704 22030.006637 10867.204541 19228.311223 24925.752443 24820.428129 22176.364638 23500.061690 14394.142694 28110.079695 14376.298540 22730.539154 24031.528790 6795.156843 16213.042137 22405.142421 21929.918347 22794.237161 9142.435834 25183.725294 15956.513069 21970.306817 12719.009042 13472.418124 8978.545728 6873.764191 25301.858016 26813.401836 11795.630632 24455.313750 11282.239210 19733.064733 11605.843091 14756.457812 18314.484560 15536.806624 14218.176881 24639.398599 23355.786257 21597.572280 19638.598561 15970.523228 20452.083884 16401.433224 8975.464595 24165.765425 20002.176303 12456.090937 21888.012651 21660.880401 25771.281456 21500.565451 21268.209229 19552.568208 15606.062798 13124.207688 21024.334195 8903.063101 14694.695132 23687.860552 22539.262827 24180.138176 22292.346100 19090.133710 20602.674894 15525.774488 17432.181844 8406.374046 8043.690226 8048.884615 22716.548293 21843.953400 21666.142974 14048.438844 17044.336731 12270.673372 14556.380085 13951.607762 6475.643500 5804.559294 2938.225714 23128.579044 21308.599797 22567.366315 21240.483483 21278.648525 18588.265471 12389.964549 18733.725816 8393.199893 741.549246 4738.576743 19748.287727 17126.839343 22146.081016 16764.705627 9798.941282 6207.139669 6335.950552 8835.403117 5305.102830 3542.135601 4715.700845 22787.608134 17129.134701 19851.494543 19230.340343 18040.402618 7202.513005 13529.428086 7026.448921 6450.605673 4426.765349 3128.428245 21726.777170 17187.282861 20215.661464 21786.057427 9517.324897 8369.497576 9183.348977 8698.523487 2358.411939 1631.980955 3058.650034 18159.673379 22083.926327 25327.556754 19161.604660 14776.849269 6667.543671 5158.815854 8153.416863 2376.623744 2115.290760 3307.281503 19410.514813 16361.192001 16017.078131 14821.566499 13268.059674 6444.647317 7517.993913 4906.861214 3618.846199 3377.555941 1560.920683 20438.781658 19113.899429 18016.967324 11822.917136 15326.025338 14710.218606 4614.094738 7172.331683 4618.687627 7832.057849 3063.609691 15873.711005 19670.636797 17953.283924 15456.336318 8904.084909 11205.231264 13351.378331 11697.459653 6258.916177 5687.251689 1404.579113 18247.547770 15964.011072 17242.926466 14667.532552 11848.055538 12426.843515 6743.846753 3635.234976 11544.810621 5089.359264 3129.386469 19431.163378 14386.390382 19710.467635 16759.264831 14185.218258 9218.620508 11329.994802 9163.051790 8346.769661 6906.568331 1721.380002 18463.833074 17853.028967 16366.981592 11398.703785 16773.636116 3974.452230 9789.085140 4668.147627 5220.610376 4262.222341 3411.150288 16872.533528 17225.274577 13179.132657 15288.867620 8074.710674 13662.710209 8879.692371 9941.333573 3166.476049 5083.832374 6291.715867 19951.613373 17229.352414 16395.973309 13325.505628 14661.960106 8297.663403 5217.115989 8392.440474 5895.174729 7601.883803 1578.795634 19621.443704 17835.837978 13177.051760 8869.491425 10951.887959 6739.880942 7134.295307 5355.494381 6026.975230 5014.700598 2558.302828 21208.725201 14976.465304 16281.097461 14307.604241 15105.134217 6580.898895 11898.396954 6736.866672 4252.395943 5768.072954 4776.407399 18459.279810 16228.860671 12659.804551 17445.049395 16521.949713 10814.694402 9680.722722 6987.640291 7512.304767 5236.924716 1725.270526 16586.153421 11109.151827 18669.493281 12295.784909 15516.081385 9880.742085 6779.380449 7755.152544 2160.942319 4040.464247 2343.948444 17061.868502 14824.233373 16322.364331 14523.684369 12536.693560 8422.489486 5097.760242 6801.116807 5281.936715 4684.921287 2944.746520 15969.090213 13816.738256 14945.793916 16821.653186 16920.683271 8404.710148 8232.975053 5826.608041 3852.786861 6018.306008 2649.571240 18748.711374 15612.197712 16353.342788 15733.973909 11402.561821 11397.468417 8590.298469 9732.213905 2534.960101 4388.347775 4348.388759 16907.819806 15541.203038 12506.828673 11345.793049 15629.482169 11013.349503 8484.847318 9274.013188 7203.162309 4334.127191 1598.790189 16460.529775 20686.392040 15265.203359 12535.126389 11342.321473 7082.340484 8365.866675 7465.674076 13691.281681 2279.900213 4152.509072 17720.598024 19200.303270 16721.732715 10782.704936 9472.839259 7535.589372 7223.587688 4385.008525 6427.165082 4811.749981 2384.925588 20070.451633 14607.599276 19155.348908 15057.206707 6753.403848 7548.882739 5401.101988 4769.299289 4367.423796 7055.400506 3737.034235 17016.241518 15796.102398 16115.470686 15350.915885 12904.674913 8470.508861 3986.146551 5785.194256 8075.201324 2808.756388 2806.167401 16859.626156 16240.615660 13905.982435 11151.217164 10493.304535 10784.665198 13573.884521 5082.159306 2981.577734 2774.302103 2061.682356 13725.620164 20828.649589 16793.577331 12664.474213 12045.992737 8359.084359 9734.303081 6692.527865 7284.019536 3910.066336 5049.449703 13925.593410 17195.324182 13009.673536 16089.680027 9724.401587 9895.950844 6695.118398 6619.484558 6292.110189 3421.753258 4480.473918 18340.085951 18588.684110 14635.584214 8456.705609 9500.161786 9546.993977 7253.589365 11442.195528 5618.246532 8266.870118 4354.436751 12228.714332 14297.637192 15038.489421 5632.256082 7388.409732 6201.200829 5282.509205 5700.993277 5622.581715 7203.694971 5160.914775 14612.591933 11544.387599 11035.304359 16754.935893 8572.493306 11398.394625 9881.988911 4396.035294 5790.780156 4639.585553 2116.627468 18815.974881 14526.076381 17138.551290 15584.834541 9698.717168 8997.243737 5840.527199 12789.299368 7719.103855 3706.713746 4148.500925 17838.551515 15809.361548 14600.242697 12586.406676 8310.295447 13043.917847 12982.881710 3434.533402 8783.320271 2596.331813 4736.239024 16004.023355 15277.202769 15892.289574 12480.362505 12086.068776 9676.326757 12569.059049 7852.167688 8896.249090 4193.900630 4332.947658 14803.404051 15370.724768 17113.509696 17103.566845 9993.390998 11487.303746 8145.733587 11836.363523 8368.131406 3833.025885 2344.398380 18005.611686 15096.430334 13853.294365 14112.193393 16838.627852 11221.494563 11937.293117 9768.336376 6632.524842 4646.937944 2542.963775 16150.513145 17736.139572 18104.066047 13531.825579 12750.308864 12283.282325 9987.721277 6653.358407 9903.025198 6302.910698 2722.608043 21073.712222 15779.430666 16427.981742 16748.106618 16288.136337 12570.287523 6981.651795 9588.230984 4607.048969 5599.498555 4964.444209 17191.231603 15331.653509 17261.320825 12837.334443 10991.082848 5887.532506 7462.585355 4907.701630 4408.830579 3510.497389 8077.066923 15301.031424 19217.560456 16142.919259 11937.875743 10824.835453 9492.470126 5836.204533 5201.254593 4538.969879 5016.084452 2893.710793 18669.511905 16075.092252 14997.911094 11668.271990 7704.371691 8833.631745 10106.569240 5194.809529 6059.239328 4651.041708 5217.415201 15318.027271 18366.171844 13823.499854 6570.823019 13096.885171 7096.752377 10031.779642 4451.927564 7421.873487 3981.808924 2957.144798 18535.382028 14995.322380 14520.749037 12960.979498 11337.299513 11386.347687 10157.616406 13463.772746 6303.276806 1913.821022 2568.223189 18412.390658 15630.092342 16787.615101 13220.021353 11830.598907 10205.502239 9623.477991 11051.420786 5354.174728 3025.748289 6030.289078 15325.676186 14345.019147 13700.470532 12959.365567 11977.336772 11200.616797 8040.976702 3146.180661 4562.270423 4565.891174 4448.338008 17270.519537 14189.062941 14722.017427 12418.836130 11914.716301 8442.764499 2975.423150 5507.616367 7973.316534 4698.213295 2400.675155 17215.003467 17171.681287 14950.065974 12236.652221 11962.178644 12205.647181 13847.059098 6343.111418 4705.806440 3570.617242 3894.339847 16901.066490 17847.717281 14596.980331 11649.964979 13032.285080 11142.748116 7749.921103 8305.356487 3896.993433 2254.020088 2149.811916 17229.966765 13422.400014 17939.634778 15528.376335 11304.253361 13185.679321 9767.358164 7010.755011 6585.951055 4584.811589 4463.890089 17587.510687 16630.032673 15376.084086 12412.579741 8865.767280 11914.544691 10179.332187 5793.566227 4078.708249 6083.016769 3224.455375 16853.842059 18024.863006 12123.096589 14861.243588 9594.264172 13871.050657 8894.052210 7835.490062 3448.391049 4019.521725 4684.591182 17347.981581 14282.569288 11874.036498 15949.312123 12357.884481 7263.113607 5777.793397 6578.109004 5167.947228 4215.619330 1974.784055 17036.693532 15940.462410 12181.964194 10920.939685 12117.452956 10619.269134 11175.963996 5875.590367 8883.704816 5954.366445 2156.116494 17059.957196 14400.393457 14361.301544 12998.360903 7101.228951 9559.536735 10126.344327 5812.103417 4557.609671 8286.060616 4746.063227 13657.465915 18571.402378 14365.348165 13003.564651 8864.367177 12392.296943 7360.872266 9361.891375 5418.933922 6080.049265 2676.992810 16380.567799 12517.867986 14109.482253 13030.891979 11828.205308 8809.781771 10596.879886 7460.444351 7997.720480 8447.098602 6175.958076 14569.541773 12908.232508 12682.684052 14541.756377 8504.289636 12027.798356 10684.829745 6043.251775 11669.783399 4491.708833 9686.655820 14804.731672 13292.041072 10725.501911 14261.952318 13263.717871 13125.205493 8479.150083 5932.803181 5792.133311 1868.785793 4703.871180 16414.271501 14112.279576 15095.461289 13310.595091 13397.993858 11648.629243 9535.453558 8428.233619 6635.456025 5681.731440 1300.466509 11788.494298 14950.854845 13926.356442 13601.943503 11633.444937 9908.215748 11087.990410 4674.864487 6619.766306 8942.331295 7447.533851 16849.763762 13258.052288 14462.460106 12871.206496 12805.974341 10515.842082 8667.189976 7734.557598 7293.381882 4504.938062 2924.234824 13478.865949 16716.758570 13721.508045 15453.770855 13226.160319 10902.233410 7128.195129 7589.769822 4512.112851 7631.645071 2613.402782 15150.014865 14296.408313 15737.117712 10708.043412 14056.744458 10411.372208 13796.560678 9792.702166 7116.957188 4972.670033 6548.991211 15620.616928 15749.376452 12991.431303 14046.818068 10876.056737 8991.049904 10536.572654 5809.225601 8421.094298 4213.039462 10005.782383 14665.201331 16028.232319 15519.968046 13324.016705 9603.049454 12366.509910 8700.218684 10426.485906 9651.400615 3354.685012 2004.463813 16320.308170 15148.181585 14143.753100 13451.695120 13535.138919 13432.833946 11907.997684 8967.795215 8033.673386 9617.888860 1946.503000 15211.197597 14299.966808 13864.824053 15282.439598 15212.832896 11540.994983 9148.839209 8205.729705 7957.555311 8306.862669 3490.051778 14589.001748 12255.552670 16463.585752 12129.742456 11987.136483 12219.730042 8137.121796 9908.702728 6983.687263 5705.808992 1629.500274 14570.962536 10920.559565 14182.921909 16491.991968 12148.691863 9127.894046 9960.586368 5201.023577 8445.569173 6187.842598 6837.812655 14533.080429 14947.762031 11850.400287 12513.434190 13164.459741 10608.504646 10094.692833 9881.594547 4487.699160 2243.367092 6466.510275 14582.572995 13424.197098 11344.295392 14238.977600 11051.612653 9554.937964 10471.326678 7635.102019 5864.213173 5364.780970 6692.818179 13785.119153 15089.898854 12165.279886 12974.071928 10188.681698 11553.798797 7948.792390 3755.386619 5316.059064 4851.574584 3464.597740 15527.613079 11964.200092 10949.325253 12573.455349 9791.927565 8056.965751 9575.087277 11921.814260 6354.569972 7404.078176 3848.671959 13360.481330 15177.737650 9796.073869 13345.867294 8954.615464 9645.393103 9319.815027 9222.828131 7027.155283 803.153645 4158.854774 16200.704315 14884.740128 13910.807402 14397.436586 9207.882699 12049.920988 5039.388561 11515.626970 10003.694377 7167.500855 9478.501966 13807.029488 15154.478901 12230.520304 16423.231525 9452.300007 12384.352039 10973.379169 11187.639446 8064.817446 5578.817747 4968.560488 15246.484594 15500.497611 15064.408653 14819.671104 15154.883024 8517.528478 11927.622501 10404.012716 6291.216992 3094.366825 8147.241408 15335.708306 14184.257002 14123.265612 15598.488073 14512.872767 11493.980351 8075.123870 11367.974735 7613.041730 7848.488369 1238.221200 16483.822267 14261.925660 11038.033101 13173.212034 11330.566313 15316.197113 11195.227167 9271.431350 2952.646262 1619.581696 9619.702525 13560.177970 14070.902667 15390.280778 12408.395298 12500.457620 9911.105307 9847.863764 6463.407537 6767.902619 5319.230354 6198.903235 17764.458462 12904.917487 16624.407532 9990.710939 11188.522942 8391.591097 12863.620214 8530.908380 5769.471493 6385.157180 3105.433230 15929.695931 16571.509437 12960.800503 13421.723645 11467.409078 6716.860906 8867.288473 8073.822514 5866.043999 7477.681604 9909.010067 13966.241405 11176.811892 13514.572906 12780.699952 13073.743292 9644.448050 15249.681288 5916.243347 9108.075588 5184.800543 3581.105972 16888.367523 15169.688843 16330.117669 13581.077560 11834.537008 17147.112424 12169.514151 7318.149813 8174.173313 9494.806818 4281.921396 15898.333194 16983.745058 14570.004222 11333.237715 13104.507793 11569.039319 12900.887333 17698.179603 5858.887658 8265.799459 3858.530890 19901.685057 22398.908762 24249.970622 22752.370107 15724.901049 21150.981465 19282.610648 23721.257637 23201.399631 14790.331944 15728.230438 11200.062436 7666.013632 8350.438457 23632.823213 13661.500126 25974.115587 22548.804787 10537.189311 24982.336057 13723.431685 12281.491629 19049.144743 10814.438746 13264.706328 9269.743285 3424.720976 15384.806139 12200.599805 17001.366951 15078.664806 6290.030688 10032.932681 11107.290802 14310.720110 11077.175384 17785.269722 7781.401713 4373.158106 9908.797952 362.510724 5772.615032 16484.510568 12414.560557 12911.441168 17546.948819 18435.835434 14507.779829 12567.390623 16691.301017 7453.236815 20730.881659 13541.166924 7976.023086 5512.941051 6648.596388 16357.258528 21513.714722 13277.147038 12927.286310 20451.101379 15868.672744 16971.317975 12072.004598 15225.178256 7072.702729 10860.383271 11222.987732 6650.788158 2945.975925 13434.977161 22079.552850 12860.390480 21597.160294 18744.792444 23380.062819 23328.543923 12305.826790 8889.875931 9289.534668 7837.438291 7132.020179 12834.773266 990.296010 27389.931963 8140.236331 15326.505875 15190.373367 6128.596356 21363.708799 18196.633165 21321.387378 10231.224227 10499.233493 7712.803349 7798.012870 4264.834387 2288.936941 9873.525977 10801.312668 10585.560771 19492.147117 14740.162600 14923.708404 8002.291163 6565.792741 5135.544598 7124.391347 10138.028394 7782.035631 4308.726429 4022.362929 16853.947237 18346.446720 9059.692872 5682.550884 11443.912348 8460.176651 5784.233587 4981.641689 6646.350904 12251.045673 8892.404951 5612.221759 3776.227585 -428.923751 6238.619627 11317.331132 11599.816563 9884.354423 11653.194009 8129.109099 13450.552817 11341.423902 13395.014871 6375.063805 3013.744345 4551.027495 -1476.573862 2193.811548 8510.279969 9621.059316 19593.521961 16549.901620 5883.992061 8502.862187 6500.495658 17237.793849 9030.160460 12217.777707 16736.892309 10135.465959 5521.574038 6182.678589 8790.083051 6794.122459 11438.465941 18770.799086 8686.874672 12966.923188 5233.194708 12427.078954 6322.748644 9851.591638 9641.168924 18986.109694 4893.243351 3733.744534 7089.658048 5180.002854 -233.865649 10489.640775 4205.204517 5489.429818 9273.551264 17805.162748 16825.846579 7869.184353 4356.187327 7016.947515 8786.190965 3637.167075 3670.987879 7554.731204 6040.208202 4839.164186 7311.660063 1757.789489 5113.384062 12236.129710 7764.435302 11836.073497 7736.207208 5850.345826 3675.117183 5591.702181 4333.969703 3578.388684 4578.022361 1627.989278 2261.040010 1229.285780 6721.260283 4895.245535 1546.390987 8496.271398 4748.688295 4732.925750 2173.578430 2871.777306
</DataArray>
<DataArray type="Float64" Name="Velocity" NumberOfComponents="3" format="ascii">