<VTKFile type="PolyData">
<PolyData>
<Piece NumberOfPoints="1945" NumberOfVerts="1945" NumberOfLines="0" NumberOfStrips="0" NumberOfPolys="0">
<PointData>
<DataArray type="Float64" Name="Pressure" format="ascii">
 27065.387397 28159.880450 27526.866849 27486.055124 27340.849408 25729.412851 26565.224305 27951.620018 22234.281112 25143.019496 25220.334887 27309.380893 27534.850437 27153.528225 30705.356493 29909.415110 30725.546171 30305.494352 28554.787069 29158.369220 27833.166138 29273.352129 26744.366119 29085.715168 27900.012565 28053.909187 29260.509429 28252.128706 26938.406247 25621.777961 26816.761225 26276.663116 26254.790909 25688.352408 27281.763028 27777.741669 26689.314372 27178.391250 24688.826071 25027.491170 25409.080021 24187.130536 26145.944439 26026.814355 27144.675775 27313.461603 24768.319546 24685.437825 28020.057929 27222.089692 27262.235689 26629.141773 30532.449853 32332.877812 22376.368784 22943.242717 28940.794769 27643.627613 26746.200950 26715.871714 27859.280787 28352.575464 24897.605498 25094.457063 28978.316593 27886.584934 29944.923111 27533.991786 25112.803441 24323.743492 28715.694447 29879.218175 22926.513171 26566.767527 22792.723977 23324.528972 24288.369683 25559.530280 23093.192488 22965.160475 21431.598860 23948.100399 20231.131156 20565.735506 26657.205434 24586.416981 25633.346442 23287.477281 26004.993261 24092.521646 25015.063301 23560.206785 22283.617883 24123.667806 19715.032901 22324.240260 18655.858477 20096.202850 18914.891573 20581.711758 20623.917310 22604.089797 19999.161160 20836.198016 21272.212004 22207.469915 20201.454419 21385.059784 18420.753276 19382.205223 19385.334378 19133.530300 18030.241609 16928.185129 17781.503756 19282.613714 16696.365115 19302.727887 17417.736436 19704.996952 16901.392358 18604.242002 17290.456197 17732.063127 19093.994793 18303.234808 18609.705271 17579.861126 18223.701732 17251.060955 18333.296839 18667.402105 18310.355554 18897.975592 14232.969100 13868.504716 18394.756924 20770.870124 15130.143243 15806.385065 16675.818675 17781.742251 14303.381806 16165.077967 15238.533584 17231.423810 14820.827697 16007.713363 16223.452128 16674.358037 15248.036404 15651.402873 15167.876215 16575.686873 14815.315422 15424.964193 16447.799648 16392.086082 15590.543767 14943.996678 15900.159947 16049.140349 14975.571962 15751.646753 14075.091792 13916.958902 14609.686612 14644.803320 14335.438422 15330.995851 15080.124357 15602.777880 15431.171834 15747.807466 16553.899530 15433.865465 16839.331170 16036.290777 16348.316390 16600.018090 16971.361177 16560.013459 16650.080178 16613.331955 17614.688381 15900.879260 18446.022535 17026.593652 16781.010482 16496.463657 15163.419637 16234.231838 15327.381641 15714.093178 15800.181074 16396.690598 15529.709119 16838.997764 15100.103142 15653.524591 15874.026737 15709.858954 13822.393303 13417.395019 13552.988735 12180.671146 16364.804580 15733.486132 16845.400941 17708.947550 25841.242367 23296.416731 22631.682842 21991.242491 21268.582672 19811.364090 17528.513082 17201.798214 16798.097030 15534.554484 14042.346757 12615.462545 8732.114226 3748.205536 1683.140294 2877.950812 3539.353654 3348.852752 1654.726908 -793.352355 -2606.568008 -3661.402184 -4283.879771 -4640.811147 -4827.124097 -4898.468403 -4888.893569 -4820.364335 -4707.908386 -4562.410494 -4392.147480 -4203.651073 -4002.210188 -3792.177164 -3577.165075 -3360.182729 -3143.732719 -2929.886577 -2720.345000 -2516.487761 -2319.416034 -2129.988849 -1948.854768 -1776.479595 -1613.170766 -1459.099234 -1314.321153 -1178.811145 -1052.578200 -936.277658 -835.201086 26023.478764 24053.104629 23554.110234 23161.531549 21887.957533 21367.367045 18034.784159 18711.078194 18060.741193 15169.120322 14854.180808 13857.535211 12421.670030 4261.790299 1891.712781 4928.084929 4545.624797 5740.250786 4909.246284 -639.551368 -2472.625672 -3570.448940 -4225.252260 -4602.748173 -4801.610094 -4880.709636 -4876.114158 -4810.951976 -4700.901493 -4557.209272 -4388.355654 -4200.990030 -4000.472277 -3791.199919 -3576.816646 -3360.353353 -3144.329497 -2930.830096 -2721.567006 -2517.929442 -2321.026689 -2131.724791 -1950.678408 -1778.358625 -1615.077323 -1461.008278 -1316.203574 -1180.594268 -1053.905246 -935.062545 -818.393713 14754.066887 14207.582873 11548.727719 11905.814405 11687.130638 8647.504526 7494.794077 7541.658846 6319.271771 4065.916469 3775.054615 3342.989021 2169.662525 1549.577369 1035.654561 621.801781 295.925627 42.287286 -155.388031 -311.771736 -438.877406 -545.738714 -638.541687 -721.016863 -794.954595 -860.748211 -917.901994 -965.466575 -1002.384018 -1027.739318 -1040.924685 -1041.728697 -1030.364919 -1007.454900 -973.979283 -931.208864 -880.625295 -823.838999 -762.510065 -698.276271 -632.691116 -567.173646 -502.970938 -441.133351 -382.501997 -327.707257 -277.176402 -231.145606 -189.656568 -152.425030 -117.929812 16128.609873 14779.173203 12619.655783 11654.282515 10542.315167 8658.539501 7458.198980 6449.732958 5219.584743 4249.844332 3499.352329 2838.225402 2173.394653 1565.519921 1053.818884 638.773008 310.362872 53.773796 -146.726808 -305.520908 -434.502725 -542.695834 -636.341610 -719.260111 -793.343470 -859.084367 -916.074980 -963.437649 -1000.168381 -1025.388935 -1038.513026 -1039.338097 -1028.076773 -1005.342584 -972.103510 -929.615090 -879.342762 -822.881055 -761.875406 -697.950843 -632.650419 -567.385246 -503.397021 -441.733190 -383.234241 -328.532160 -278.059052 -232.067119 -190.676122 -154.054258 -123.450932 -763.026744 -729.791207 -736.207277 -704.531964 -667.991758 -650.238155 -584.318480 -582.133728 -514.429630 -514.639203 -452.268048 -452.839536 -396.539671 -397.131187 -346.650474 -347.206826 -302.131775 -302.644830 -262.544324 -263.014016 -227.465853 -227.893687 -196.491508 -196.879441 -169.235868 -169.586075 -145.334727 -145.649518 -124.446370 -124.728132 -106.252347 -106.503502 -90.457793 -90.680756 -76.791355 -76.988500 -65.004778 -65.178410 -54.872218 -55.024552 -46.189329 -46.322471 -38.772178 -38.888112 -32.456042 -32.556621 -27.094116 -27.181060 -22.556184 -22.631073 -18.727268 -18.791549 -15.506301 -15.561285 -12.804823 -12.851696 -10.545740 -10.585563 -8.662135 -8.695856 -7.096159 -7.124620 -5.798000 -5.821944 -4.724930 -4.745010 -3.840436 -3.857222 -3.113430 -3.127419 -2.517541 -2.529162 -2.030476 -2.040102 -1.633459 -1.641408 -1.310729 -1.317272 -1.049098 -1.054469 -0.837573 -0.841969 -0.667018 -0.670605 -0.529865 -0.532783 -0.419865 -0.422233 -0.331875 -0.333791 -0.261677 -0.263222 -0.205819 -0.207062 -0.161488 -0.162485 -0.126395 -0.127193 -0.098687 -0.099323 -0.076866 -0.077372 -0.059724 -0.060126 -0.046292 -0.046610 -0.035792 -0.036043 -0.027605 -0.027802 -0.021233 -0.021388 -0.016284 -0.016405 -0.012444 -0.012538 -0.009463 -0.009535 -0.007141 -0.007196 -0.005315 -0.005356 -0.003851 -0.003880 -0.002632 -0.002649 -0.001548 -0.001555 -0.000491 -0.000487 0.000660 0.000678 0.002051 0.002086 0.003868 0.003925 0.006356 0.006442 0.009843 0.009969 0.014770 0.014948 0.021723 0.021971 0.031478 0.031818 0.045043 0.045500 0.063704 0.064310 0.089069 0.089859 0.123100 0.124109 0.168114 0.169378 0.226759 0.228305 0.301901 0.303743 0.396438 0.398561 0.512961 0.515306 0.653246 0.655689 0.817499 0.819824 1.003317 1.005182 1.204292 1.205188 1.408195 1.407407 1.594717 1.591269 1.732711 1.725319 1.776950 1.763977 1.664449 1.643861 1.310422 1.279767 0.604058 0.560451 -0.595687 -0.655536 -2.463957 -2.543689 -5.213160 -5.316666 -9.095008 -9.226234 -14.401012 -14.563489 -21.461437 -21.656330 -30.645240 -30.860680 -42.379692 -42.526008 -57.294941 -56.826808 -77.344951 -72.659426 -95.011507 -86.239796 -102.575058 -93.271620 24074.760971 27592.222494 21333.568092 25502.505193 27814.333750 21245.252989 24917.452632 25342.060503 23342.426701 19389.759879 21526.172420 27886.196171 24727.398281 19066.767380 28801.011332 16584.973844 12217.741774 20709.092963 21436.859744 19008.459994 19839.989489 18649.162240 27325.588421 24544.262427 26639.616714 28086.682374 22809.557539 26723.013413 17477.847894 22322.110592 19453.101668 5353.013765 23006.188081 25762.345502 26072.839108 26035.182123 15427.149411 20443.040504 23852.665382 20533.726781 12152.995628 20567.259270 14898.121702 22378.771848 17544.756473 12175.988184 25734.259087 29903.922284 25872.849997 19872.916340 26422.556080 20596.220651 13859.748861 18966.729438 18551.170293 21516.455215 25994.296216 27925.032137 29275.963762 27547.178314 21490.710335 25208.245459 25297.457312 22739.973891 21609.189304 25373.492353 25166.005134 21076.986072 28956.038492 27221.311892 27875.965477 24455.911564 26625.012656 25811.348098 21963.916265 19468.479184 12690.367476 26823.072753 28272.856543 27174.821164 20676.357918 27994.313307 21753.718067 19724.526672 24086.564131 23669.864513 15310.513096 18681.114490 26264.476127 26873.845624 19842.871668 26324.734352 22433.381829 20994.387173 19212.982799 25164.331155 22988.663318 11990.891626 18310.070916 27250.281567 23529.582760 20677.994468 22527.715420 16915.810313 27278.689017 17386.805089 22012.308133 25226.856479 8820.065219 15891.211679 26048.710213 23713.051570 26507.483938 5983.379003 26522.900981 15854.481097 21751.357731 11888.124722 13342.762491 10563.957369 8621.677812 29877.415647 26048.831369 12467.089272 29660.381562 13050.511532 19872.028989 13758.443643 15384.340015 20109.158907 18948.162873 16507.290387 25135.908654 23024.641519 22815.284787 19289.741998 15694.810627 23440.667938 20438.583039 10376.563929 24318.014216 27682.501882 16555.540383 25821.115350 25485.588701 26083.608854 24653.135798 23181.266564 21429.695095 19221.663330 16547.999320 21343.794732 12609.655220 16729.295088 26233.620148 24475.498043 26650.071228 25363.516921 18504.257413 24293.957234 15880.809678 15888.971821 8844.263076 12016.208790 11301.629976 27518.232612 25588.874640 26697.378191 20407.582999 19307.464665 16659.575093 16820.431242 11570.129342 6649.902427 7184.162688 2250.150723 25857.732302 25214.280588 23837.997539 26633.154617 21448.576257 20469.963421 14954.632418 17174.139894 10289.733698 8085.414139 3615.977072 24373.013156 22026.487842 25933.443570 21697.249347 12054.566549 6566.351726 8548.268960 10128.719522 5222.601404 4769.978805 6433.050400 26402.565143 24601.913243 22346.329336 25545.149854 21248.953119 6595.187538 19232.727442 8041.309523 8775.194931 4538.818517 7379.457833 26345.769181 24661.443930 24498.110485 23673.051685 11763.420673 13123.114100 11589.741456 9317.909140 2204.316492 1214.364089 2712.479677 23362.091769 24016.036812 26232.856587 21361.702882 14685.265754 10364.076136 7923.723434 5049.477722 -211.674820 4539.040383 4826.473064 28681.320465 23535.819504 18781.602256 17214.500859 21629.159691 8182.721727 8464.149515 8592.761291 7530.752881 5170.457393 3846.088607 25239.209908 29422.875568 25477.238840 16342.646554 17561.980537 16634.115047 5949.774399 8797.988717 5281.072470 4564.019359 3374.357431 26778.041405 24652.463616 21671.514161 20309.185255 10558.595634 14469.257096 15135.546985 16784.516126 10909.282891 6394.045313 3850.815574 23491.607089 25197.937995 23133.856452 20448.938237 15594.285681 16851.814931 9940.848103 7242.601508 13233.017457 7414.932475 7273.032219 25196.331148 22790.558281 23905.007635 26570.936576 19272.233283 13207.089100 13320.015256 9956.723342 11616.680266 10696.498904 2952.334392 21655.373573 23331.920945 21248.053338 15316.632576 23617.654842 6402.960063 13003.086225 7818.359891 5929.223237 5158.439406 3393.172572 22758.262814 21485.788301 19446.198029 21415.661686 15219.933975 17256.630891 11342.904965 16448.779384 3037.085420 7389.057654 8197.938821 24784.588277 22575.290960 22473.094165 24147.038780 20281.142614 13199.558176 8896.039323 11587.808098 7013.666788 9098.108191 1167.941951 27017.297586 25418.100702 20388.173002 16699.900905 18143.970474 9919.516773 14199.599677 9092.171685 9291.708028 9593.146358 4741.945738 27080.326925 21783.911015 22110.307260 21547.424357 20747.585901 10031.821785 14536.872968 10285.314990 7591.097548 8784.875553 4775.613599 23811.373381 26764.161390 22387.114830 20110.852900 25319.526435 16726.733448 14503.703841 11495.830952 10521.266150 9922.021557 2657.770708 25683.179887 15876.319282 24790.250614 18500.955349 25446.705194 16112.603399 10163.591271 12228.948181 6014.753116 5585.609958 4641.740697 27853.709318 27318.558218 26368.811191 19268.629820 20099.101312 14428.599291 12288.805409 13210.812418 5913.501767 3474.350369 4810.290378 26607.115368 25398.842415 20654.296800 18456.233674 22255.467287 13591.669093 14729.753265 9119.634499 6920.336467 4736.353780 2136.715798 25674.313580 26206.483604 19832.758256 20853.291739 17246.086243 18688.621593 14843.115035 15413.657734 5383.475647 3550.790820 4133.349151 26558.551095 22677.818707 17922.068769 21392.612496 23074.320003 17395.098400 16743.083368 13808.060312 11741.258808 6776.312218 2197.026762 20130.415357 25708.893986 24584.291940 20458.182685 17426.498836 9723.048997 12548.689978 11184.458444 19928.319344 3877.382617 5898.537569 24089.954507 24714.598739 22508.718124 14490.056040 17399.138895 11094.182272 8078.952270 6131.488189 7789.513714 5430.489690 2426.183459 25480.450282 21603.226736 25532.275849 18832.223064 8116.311559 11674.431902 8065.371353 6280.095526 7490.478033 9026.503848 932.995340 23643.308714 23198.155611 23493.182105 23351.565241 20097.536051 13897.790495 4868.809921 7304.097485 10664.561262 4206.674305 4416.061195 22105.077683 23911.774186 19683.942480 15009.317093 15056.989993 13515.068322 16146.214592 8876.822995 5256.140701 4547.808279 4519.547448 19503.335410 27588.796935 21028.577449 16473.019956 18545.697558 10649.280137 11869.474418 10683.336479 9945.787881 5090.010581 4439.722854 22178.664415 22417.637375 19169.251214 22014.458244 15028.056981 12882.049070 7714.645884 10199.266898 7571.712850 5456.384991 4441.243981 23635.998144 22394.102667 20730.178040 11973.883829 14922.950195 13851.202599 10017.923448 13319.362656 5776.155888 8627.161384 1692.262218 19976.783851 21695.156119 23551.335926 7197.348970 7466.151881 9641.120883 9734.391834 6893.417993 5867.774835 8370.821448 9348.423645 21546.198139 19007.398127 15727.264104 21938.494659 11851.957296 16032.819542 13796.050463 6625.103392 5775.901739 8803.263203 3484.324703 23690.638427 19401.445576 20407.627702 21059.395398 14221.969004 14735.499020 7240.472267 17644.978163 6331.786818 2843.205477 3147.277606 25207.553539 20816.848188 20632.368490 16415.321016 12384.295769 16306.398873 16968.258828 4472.203150 9608.299627 1666.820134 2426.192437 20247.521261 22148.573063 22606.296698 15274.520541 15421.633446 14551.563327 17743.060941 9484.660696 12578.784809 4291.249428 2505.327447 21218.532674 16453.561147 22115.531840 19409.751908 12025.782012 14109.575548 9873.580262 12992.788291 9532.870246 3886.198715 2196.446051 21408.651365 23261.102495 20630.015021 15704.458358 18247.211023 13368.575515 11519.176436 11896.229434 6320.268781 3212.752957 2735.634455 23707.554530 25408.031681 22309.245939 20553.397283 16597.281444 13737.588487 10805.625539 8418.327303 11761.951345 5963.928831 3567.351214 23948.442465 21407.060367 19828.847866 19932.527992 19762.726214 15291.828320 8631.660916 10555.863517 6592.905562 6528.952479 2542.454822 20828.234610 22495.539288 22882.970023 17120.433064 11758.446877 8191.515779 7231.279505 7359.858850 3551.628719 4469.848496 3371.058122 21685.300554 19100.252595 21868.305858 16620.978797 11967.895957 9604.041090 6169.066995 4636.408525 4231.581376 4578.358680 4442.758747 20401.365400 19932.224441 19042.889449 13699.106837 9178.008264 9799.143597 10128.872855 3776.797320 6627.614230 5403.342994 7393.398706 19975.982321 18923.474247 16786.851940 7726.076129 14572.460157 10376.885046 8800.983139 7634.471560 8288.313272 2845.643756 4229.232941 17897.153102 18415.798079 19740.239507 18105.818832 12883.439475 12819.119574 11732.607212 14072.967223 3775.240080 3893.054157 2336.786472 18393.321389 20390.555351 18841.184758 15722.774413 15718.461505 12632.188189 9091.923225 10828.469006 7209.536097 2794.771132 4921.075655 19126.354229 17324.672627 16901.406166 14073.601436 12824.383639 14104.592208 9048.357544 6195.218617 6707.197463 3042.318906 1882.379274 19644.776015 17215.764929 18302.869304 14952.598844 13244.347325 8973.147063 3464.424573 5292.151645 8110.296226 3613.040794 3213.728948 17464.054668 19545.658954 18058.179065 16889.356998 12560.778372 13828.084146 15116.997500 5754.902885 3855.968681 2395.163771 5521.306443 18514.752955 17836.108380 17884.873372 14636.998894 13951.216537 11665.751627 7455.060655 10276.245118 3532.485142 3465.191823 1399.296693 19882.806355 16525.480084 17209.957497 15691.285227 12533.729439 15166.319874 11536.199603 5752.920422 6729.565768 6292.336212 5704.853378 18954.404611 19186.298439 17469.558142 13030.515414 9231.277435 13164.496747 9525.649787 6344.035884 5909.455027 5632.279670 4595.276384 18070.431206 15563.358065 14902.175553 15848.388780 11391.900431 14493.936209 9831.581585 7867.667536 2518.174935 5202.613498 3179.340979 18125.006342 16641.200741 14761.397977 15909.201960 14227.971197 8395.136620 6736.395192 7435.900512 5985.262169 5770.925296 1580.650962 16420.426128 15896.295739 14214.485341 12765.969634 11750.853065 9733.297742 10804.178738 5197.883658 8622.573341 3384.766345 842.913728 16730.158528 16142.964709 15392.205976 17083.920547 10670.832307 10394.288952 9323.494374 5534.044576 6259.378222 7880.888234 6850.910169 16217.168202 15614.143044 15655.938302 15266.803349 11155.221751 13405.794661 5558.408726 11350.033833 6602.886162 7539.959130 3222.660644 17809.915897 14507.104605 18494.927826 17646.153042 13204.603371 12926.616887 8314.494094 7882.039678 7224.514277 6703.994508 4582.829496 19686.942485 14901.660505 17592.782394 15478.899585 9641.957904 11518.438633 11631.187847 4866.880671 11095.950587 3448.744636 3213.852712 16209.315955 13901.042912 12405.118851 16554.807102 14239.185759 13964.062071 7618.166655 5467.980613 4598.379353 3634.571338 2033.697165 17020.178151 16723.236403 14903.829515 14968.412337 11926.914458 10008.619981 9741.013148 7629.671337 5389.072963 4593.134662 5860.153576 13879.958298 17552.701676 12209.846230 17502.944704 13671.536461 8495.317335 10561.809865 5907.635854 5974.885347 9733.612786 1900.688653 16453.956936 16545.123629 15901.831683 16428.378106 11318.320299 10657.008370 8908.343096 6005.537550 7469.695313 4968.984330 2454.704190 18195.037899 14795.019125 15464.376531 14027.064083 12877.556479 10646.651107 8727.527964 7335.819841 5329.729717 5435.933435 5327.366481 16189.179452 14233.607193 15572.524787 12896.952854 13740.582114 13003.181626 12984.780885 9375.908556 7424.973144 5990.561095 6829.041519 16069.814215 15084.243627 13351.112784 15055.057630 10594.097918 8374.860973 9310.314928 7610.193238 7205.927686 2389.579204 7521.991597 15464.359237 15661.581728 14546.318801 12158.638073 9963.610174 11871.786205 8534.014831 8964.260747 9139.459280 3441.121563 2683.054570 15210.628553 15813.317943 13385.279445 14345.456375 13023.394381 13768.449043 11325.103496 8355.337403 8730.918886 7565.099681 6767.487052 14722.952747 13320.120687 12847.634665 13124.221873 13728.907744 10235.008872 10032.189040 7645.154635 7313.689768 7176.442841 -1492.402127 14996.100001 12894.322824 16152.730088 13712.189655 11745.498684 12520.941509 8276.926618 9143.004953 5247.858073 5550.264295 3582.591041 14381.914230 12429.374318 12902.051811 14258.782582 12150.854694 9003.984511 10122.387214 6495.491836 9125.656391 5455.573541 5262.797379 15152.871413 13966.229035 11248.907953 13166.554994 11535.419849 10621.180425 10653.562315 9584.512905 1384.820076 4704.336767 4008.750066 14310.917706 12685.893518 10929.763231 15596.476355 10835.751935 11049.359285 10072.142524 7386.783106 5537.836736 6685.597190 8476.714273 15591.671876 14262.641823 12680.762349 13500.132251 11994.251528 12862.010797 11694.188696 5400.823351 9249.012570 3399.006527 3812.472214 16264.142464 12702.336710 13413.262556 14083.937691 11293.059391 9484.259269 9925.622694 10802.768605 8696.017450 8097.493829 2092.076087 14600.636159 15629.494247 12902.241890 14533.819735 10409.567495 11868.279850 10844.866778 9343.833790 5847.945253 2184.456714 4222.656366 15887.925785 14442.050318 13522.437825 14615.841592 10663.293951 11204.085808 5868.225854 10483.818744 9555.230855 6438.864355 8139.526605 13883.588883 14897.953635 14199.238101 14599.207894 8809.383224 13445.270403 9506.176814 11739.688735 8205.751825 2549.237372 6134.724077 14830.089625 13438.954453 14430.827780 13874.399589 14458.922662 9907.495177 12211.092550 11461.708359 8251.661426 1143.345028 6790.903408 16358.352484 14637.858081 14436.611468 13580.580457 13098.811866 13539.165994 7854.641214 13699.118513 8318.977876 7827.691975 1727.855029 15791.664495 14174.903490 11828.196185 11736.837292 11866.555054 14483.415723 11684.396769 9202.877054 1470.275306 2706.836838 8947.295894 15292.064845 16283.790607 15373.185828 12993.289561 12864.876429 10184.014317 9982.783243 9250.086950 8271.472978 4770.333570 6943.201692 16964.313195 15178.541599 13577.305310 9998.756138 11370.072681 10797.699602 13128.962568 10387.407730 7082.458892 8378.451913 2167.718715 16361.098680 14566.286953 16386.973259 12279.674743 12119.490834 7416.745408 9133.930759 7125.109911 7970.209845 8003.475140 10026.344819 12815.844959 9731.720018 12857.501002 14281.568196 14046.272918 8028.143830 13590.660662 7313.405822 8999.027309 5933.402192 1163.838349 15695.151680 14741.738090 16351.045961 13453.114493 9888.200564 15400.342007 10624.694043 6470.098014 5821.766879 7391.646705 7640.848732 14405.200256 14490.839724 13986.421190 11572.565820 12102.013121 9160.311979 12469.244419 17245.273508 8377.802535 7413.553079 7930.919821 19813.405967 25406.280768 25894.804012 21906.802198 13952.758337 22038.453475 19228.400700 24612.311295 25919.042650 17586.565446 18563.363321 11429.045658 13745.819937 2546.533536 21583.436173 13505.878319 25332.696030 21287.621621 11371.655733 27253.479344 16626.634069 12851.608680 21114.208059 8889.614493 14676.412476 9104.937452 7888.760020 14507.576460 11067.984788 16130.693158 16247.426207 9051.400247 10836.742234 9569.875851 16070.220379 11263.505477 18701.580657 10155.966063 5267.660932 7350.471759 6775.115099 5390.781471 17863.095118 14206.290422 15341.089419 16637.929592 18650.563817 14486.919238 15352.745938 16159.940058 9054.531280 18110.540092 15190.733199 11308.145455 8731.415484 7649.190480 18198.645301 25246.781340 12985.765918 11486.308761 19415.770007 14867.671879 17992.291757 12854.114672 15010.630903 8367.338766 11848.007512 12353.337815 5506.656478 3005.095933 14924.708177 22460.027775 13599.799277 22832.370575 18558.555095 20909.464208 22922.905465 10227.777916 8195.947995 12189.201936 8893.445052 8109.405165 13042.419640 4990.267493 27902.864358 4504.770974 16595.758966 15605.888589 5400.760564 19097.736301 19943.464636 21661.999457 11548.790555 9047.946738 7656.937416 6591.811500 7889.408331 5910.334300 12712.285495 12682.937962 11555.985427 18392.239141 14758.790755 14556.095196 8446.370078 7407.063016 4307.116375 9394.022241 11225.176239 8299.120412 7053.434868 2955.127243 18150.098859 18924.124651 10736.917178 5244.870062 11921.730540 7406.864767 7223.352444 5836.942585 11231.365476 10829.439836 10601.825751 9428.530456 5296.303823 2580.406283 8795.646657 13062.527502 10879.731471 11499.387892 11534.606131 5292.440633 12319.792059 10484.654862 14557.781204 8542.822290 6257.838151 5351.198171 2147.174155 6400.017085 8035.763894 10168.662963 21343.904031 17441.477100 5960.528095 9832.939144 8968.700194 15765.849924 8708.857833 15218.271523 14598.647322 7844.996285 6428.459702 5611.963492 11481.670846 5977.894287 12598.837334 23018.353320 9280.143234 13391.391093 8207.698382 14937.627489 8961.732850 11353.935040 10231.483226 20214.009165 6200.010637 2106.422624 6845.060568 5415.934657 11700.349433 14071.672357 6946.824122 4757.631365 9625.225858 19603.023467 18483.086431 7862.888689 8369.172852 8965.627095 5324.220649 4800.355735 5912.947882 8954.178272 6924.331675 2902.103900 10142.059976 7695.591717 10139.209343 12682.628462 7844.751603 14215.964832 7817.938139 11086.508216 2491.640187 3846.855926 5312.051139 4476.965907 5989.898713 5573.768174 3399.099751 1005.645277 10492.067728 5219.272564 5798.631547 6223.708986 9014.356627 2876.355816 2836.853836 3785.633023
</DataArray>
<DataArray type="Float64" Name="Velocity" NumberOfComponents="3" format="ascii">