<VTKFile type="PolyData">
<PolyData>
<Piece NumberOfPoints="1945" NumberOfVerts="1945" NumberOfLines="0" NumberOfStrips="0" NumberOfPolys="0">
<PointData>
<DataArray type="Float64" Name="Pressure" format="ascii">
 43893.146169 46446.350725 60583.413797 59887.693130 56245.268172 55472.463759 44821.050181 45338.303412 47135.828040 44810.604711 51245.818578 53308.226376 47086.975848 48581.128536 44817.702160 43396.919124 42933.840279 41868.460948 45362.227386 40054.631359 49673.316802 48102.557998 39074.578340 36695.451752 38859.857573 40150.284385 35384.323502 35219.454416 38371.377220 38509.708435 31054.484742 31495.786892 29518.206028 28185.697893 33522.210242 34991.868679 30999.878827 33972.377153 31163.008030 27698.805684 39287.138088 37786.022809 28211.188474 21565.800175 30788.516284 32029.233645 27066.164108 23424.811867 28889.946854 28640.191224 28046.133555 29852.204443 22537.965844 22610.559420 27840.644899 32063.787565 24313.461726 23138.171290 24451.777553 24151.660428 25028.011959 28265.568638 21106.470306 23646.055700 21672.601927 25309.997308 21626.356894 26170.375394 19891.939775 23284.762046 21210.364280 24854.524253 22441.021763 28515.821118 19958.957887 22640.152766 19744.833018 24000.513460 18029.376325 21384.003850 18478.363498 21463.138500 19246.779788 22872.683801 19855.813145 24673.448945 18836.230831 23589.827571 19139.504396 25709.637529 17950.789619 23651.751358 17149.595081 21855.292830 16712.427005 21431.268331 16939.148104 21440.483401 17303.610216 21791.976529 17366.045350 22168.175584 17505.422812 22440.605182 17555.946332 22414.950969 17722.788371 22593.710589 17822.265205 22727.081313 17990.619614 22953.782707 18203.660232 23250.516363 18504.678061 23666.797929 18857.118988 24151.326213 19232.166410 24686.976708 19585.703036 25257.463972 19892.909302 25865.066513 20100.900581 26458.859638 20197.232751 26987.299422 20137.925561 27355.697377 19953.189187 27555.820779 19628.303947 27521.475463 19173.733471 27239.382034 18635.305983 26732.234919 18026.720155 26028.516265 17400.594108 25202.869322 16776.432627 24304.634872 16155.983522 23391.369478 15582.095985 22534.720685 14985.013462 21666.268568 14426.043385 20901.063555 13864.555679 20090.612907 13284.477522 19289.275910 12736.338633 18391.191410 12129.921661 17394.823231 11587.455114 16297.698412 11051.237717 15156.257233 10564.752327 13957.398076 10141.937405 12948.136865 9783.417658 11821.000238 9473.497957 11019.422798 9332.692167 10347.076266 9242.731067 9738.230521 9191.215478 9221.762083 9696.332047 9155.828178 10061.599243 8609.385480 10679.669043 9206.403519 10369.723281 8372.246343 9240.917451 7734.931054 8598.590095 8138.375884 8271.215313 7419.892579 7700.991581 6154.800390 8695.239713 6652.057597 9072.426922 7320.409688 8031.102657 5968.558963 7294.590852 7709.849933 4386.125160 5395.378172 4188.376913 3724.099627 5766.405069 3476.911140 6960.866603 4567.472466 43014.047643 39640.018608 33803.055864 28758.267694 25864.129573 26573.429020 23624.097249 19149.989986 14736.768416 11900.967247 10162.596230 8676.752950 6741.476055 -2028.607344 -5195.270091 -3444.297054 -6223.205530 -10351.729916 -7936.425151 -5339.063066 -8239.986995 -11526.502209 -9785.877549 -8209.163947 -6990.570531 -5949.978229 -5043.643171 -4250.880802 -3556.702471 -2950.481969 -2424.428503 -1972.121296 -1587.483716 -1264.282973 -996.036101 -776.144774 -598.110325 -455.738141 -343.291835 -255.589942 -188.052825 -136.711519 -98.189253 -69.664027 -48.818676 -33.783414 -23.074999 -15.536046 -10.278168 -6.637591 -4.190720 50782.660735 43885.477059 38771.373727 28858.315281 22826.922197 27438.125763 20991.848429 18408.647734 14569.091603 9832.354207 9427.431779 1485.958940 578.268160 -6751.484868 -7247.767323 -1143.479124 -6089.541641 -11962.555286 -7945.567983 -3226.096386 -7341.156189 -12543.068670 -10042.688146 -8153.430748 -7010.885512 -5978.083785 -5069.623412 -4273.490295 -3576.497271 -2968.123465 -2440.345173 -1986.516445 -1600.425108 -1275.787261 -1006.122847 -784.860622 -605.533005 -461.970381 -348.452176 -259.804087 -191.446811 -139.406781 -100.299210 -71.291848 -50.055936 -34.709479 -23.756956 -16.028695 -10.621546 -6.835241 -4.069573 1456.270630 834.147369 -65.705657 517.815231 -1473.385168 -2111.137764 -1013.995263 10.973373 -1913.060711 -3262.796563 -1223.957854 1164.295999 1641.244328 1324.624203 951.564235 642.579193 422.972859 278.468055 185.774536 125.453339 84.767961 56.404358 36.366137 22.351826 12.832305 6.640030 2.830622 0.650304 -0.474923 -0.957555 -1.076766 -1.010410 -0.864836 -0.699146 -0.543091 -0.409269 -0.300922 -0.216642 -0.153056 -0.106269 -0.072584 -0.048803 -0.032319 -0.021089 -0.013563 -0.008600 -0.005377 -0.003312 -0.002004 -0.001177 -0.000635 3030.450769 2562.635043 2256.686573 2904.025541 2089.383864 2073.348584 2087.587904 1952.042721 931.183136 606.601225 1325.734814 1616.027918 1590.447393 1305.934280 957.716956 657.671845 437.673572 289.480333 193.023818 129.965426 87.593163 58.269968 37.681437 23.318551 13.546804 7.156225 3.189048 0.887217 -0.326954 -0.871111 -1.030477 -0.988797 -0.857402 -0.699195 -0.546601 -0.413973 -0.305640 -0.220832 -0.156528 -0.109018 -0.074686 -0.050367 -0.033455 -0.021896 -0.014126 -0.008985 -0.005635 -0.003482 -0.002115 -0.001252 -0.000718 -2.773469 -2.163963 -2.527380 -1.993162 -1.797551 -1.547187 -1.076432 -1.057273 -0.670670 -0.679428 -0.418413 -0.427684 -0.259393 -0.265961 -0.159474 -0.163778 -0.097196 -0.099943 -0.058728 -0.060457 -0.035185 -0.036261 -0.020905 -0.021568 -0.012319 -0.012724 -0.007202 -0.007447 -0.004178 -0.004324 -0.002405 -0.002492 -0.001374 -0.001425 -0.000779 -0.000809 -0.000439 -0.000456 -0.000245 -0.000255 -0.000136 -0.000142 -0.000075 -0.000078 -0.000041 -0.000043 -0.000022 -0.000023 -0.000012 -0.000013 -0.000007 -0.000007 -0.000003 -0.000004 -0.000002 -0.000002 -0.000001 -0.000001 -0.000001 -0.000001 -0.000000 -0.000000 -0.000000 -0.000000 -0.000000 -0.000000 -0.000000 -0.000000 -0.000000 -0.000000 -0.000000 -0.000000 -0.000000 -0.000000 -0.000000 -0.000000 -0.000000 -0.000000 -0.000000 -0.000000 -0.000000 -0.000000 -0.000000 -0.000000 -0.000000 -0.000000 -0.000000 -0.000000 -0.000000 -0.000000 -0.000000 -0.000000 -0.000000 -0.000000 -0.000000 -0.000000 -0.000000 -0.000000 -0.000000 -0.000000 -0.000000 -0.000000 -0.000000 -0.000000 -0.000000 -0.000000 -0.000000 -0.000000 -0.000000 -0.000000 -0.000000 -0.000000 -0.000000 -0.000000 -0.000000 -0.000000 -0.000000 -0.000000 -0.000000 -0.000000 -0.000000 -0.000000 -0.000000 -0.000000 -0.000000 -0.000000 -0.000000 -0.000000 -0.000000 -0.000000 -0.000000 -0.000000 -0.000000 -0.000000 -0.000000 -0.000000 -0.000000 -0.000000 -0.000000 -0.000000 -0.000000 -0.000000 -0.000000 -0.000000 -0.000000 -0.000000 -0.000000 -0.000000 -0.000000 -0.000000 -0.000000 -0.000000 -0.000000 -0.000000 -0.000000 -0.000000 -0.000000 -0.000000 -0.000000 -0.000000 -0.000000 -0.000000 -0.000000 -0.000000 -0.000000 -0.000000 -0.000000 -0.000000 -0.000000 -0.000000 -0.000000 -0.000000 -0.000000 -0.000000 -0.000000 -0.000000 -0.000000 -0.000000 -0.000000 -0.000000 -0.000000 -0.000000 -0.000000 -0.000000 -0.000000 -0.000000 -0.000000 -0.000000 -0.000000 -0.000000 -0.000001 -0.000001 -0.000002 -0.000003 -0.000005 -0.000006 -0.000011 -0.000012 -0.000024 -0.000025 -0.000050 -0.000051 -0.000103 -0.000099 -0.000220 -0.000176 -0.000360 -0.000261 -0.000430 -0.000316 56804.902793 42681.646865 43771.914346 42883.447181 45545.486883 33118.505430 39201.799245 37193.736662 37897.944476 41215.309574 30062.675784 38825.629275 43556.504171 41260.587234 49530.895808 42834.017212 40900.621265 30224.977947 36812.194821 32816.691129 37088.052264 31380.791636 39847.839291 43787.932928 51342.920985 41236.948347 45993.833106 43523.371527 37408.478690 28476.615392 34508.292199 31256.270261 40606.901574 40754.785250 37638.820977 40614.865532 41922.866969 34647.122556 36446.608565 36272.032488 39116.008173 31797.014374 27845.027806 33163.587228 38902.886213 34004.854058 40644.308798 40971.279391 34576.823401 31631.786741 34248.305313 35031.121336 33704.255074 34097.517633 25233.188576 33836.479077 37072.683764 34820.131089 39114.489452 33769.013289 32335.179627 37434.950473 29823.782999 25590.985557 18794.947107 25271.066217 30347.564638 29507.453314 36030.910821 31575.884966 30622.587678 26575.274280 29691.024699 30205.830592 28672.673777 29057.718667 23505.767377 30216.629134 35753.435937 28916.246034 29107.574271 31044.194153 27624.882686 25789.290687 20105.434267 23524.197531 18026.857730 16912.420886 28084.145358 29455.148838 26898.326717 29774.583483 27507.592331 19444.584665 26576.706203 25764.434123 20252.153303 21604.704374 23651.595959 29943.729125 23667.758293 26917.277874 28286.945368 27672.673734 26604.280747 20293.026260 20921.496957 22893.405224 15419.227812 18526.835156 24689.283132 22912.468239 24719.015742 22944.734214 26439.146524 18746.195248 21821.875534 18012.107196 22678.816984 17246.719643 13247.845740 23988.388712 24394.586733 21722.013266 25211.446439 22645.649570 22750.727360 16726.864943 16988.532698 18215.368676 16204.104197 13600.801239 25914.215324 23336.180570 23946.306515 20016.930360 21098.563379 17559.901534 20177.611395 17729.377792 16188.933096 11810.860884 11817.921273 20752.223074 21491.933281 25483.262524 23716.850153 21106.512747 16313.396526 17633.252996 16355.808492 14761.830053 6687.788307 3369.644904 24522.949924 24019.206449 21731.066677 18882.930421 17710.763583 18476.840818 14651.527926 12005.727826 8330.812669 8439.958282 -2107.114919 25870.980411 24508.796425 20414.771144 17469.282597 14753.546745 13172.972790 11673.831608 9889.630536 5273.934411 2336.831936 1251.281679 19977.936313 21241.647522 19774.917076 18370.375459 17669.317472 15962.755542 10439.122945 8700.150313 -352.497282 -4039.398647 -18614.613257 22914.799352 20953.182533 17519.118794 16021.678330 14800.701148 9918.533838 10680.338975 4987.176056 6453.703776 -2947.996939 -16542.984387 21657.807684 22416.285458 18776.265249 18518.019361 13288.427985 12230.700240 5930.272968 3349.888145 4565.491048 -354.806979 -18701.022728 21949.099654 20637.265794 18271.186424 17170.882677 11103.066767 11098.580323 5593.410768 1243.772118 106.847406 2297.439892 -5937.325783 24609.810676 20464.017022 20273.043676 17406.210826 12188.469345 9449.219335 7734.431330 6037.572167 10023.187446 7601.651674 -6747.088048 23550.830114 18700.184518 17151.240339 14706.662987 13860.275241 7895.212419 4503.802080 4423.785252 4145.970524 4889.504297 6994.311336 23409.599683 19102.069226 17965.374482 14414.781341 14061.030718 8568.805308 3405.788506 5676.052677 7529.773594 7392.588696 752.096039 19764.661423 19324.867903 18625.214880 11931.968815 6658.530034 9697.056522 4903.157927 4787.169258 8179.862349 4727.545354 -8808.614415 20958.984410 20199.701728 19215.322096 13944.510961 10816.662446 10591.640344 5344.728311 5929.490950 4569.781377 2594.133059 7808.745295 23894.035166 19576.735917 18600.088413 13537.042332 10777.631060 3838.936030 5973.782773 1356.266106 7191.683544 1928.209321 10719.978633 20730.264405 16822.774023 19702.405398 13870.573987 8515.121862 7936.332676 6798.469748 7471.107389 2638.740699 4192.792398 13452.853002 20687.784739 16617.480424 19327.992793 14731.528421 9750.166706 8297.852588 2829.622502 4932.989864 6624.119497 7817.769414 1341.981040 21419.033529 18398.139393 18803.953797 13412.027245 10478.851219 9977.952570 7700.324575 4691.933934 2706.372585 6019.616002 2737.625502 19997.227887 18513.863188 17949.904926 14375.895377 10792.825848 7072.455862 5846.971812 4858.196813 3710.751624 5479.024785 2146.666750 20722.238809 19151.011868 18052.399307 13666.100496 11401.425921 9768.487478 7314.219168 4608.388645 3976.953263 1353.154774 1745.253143 20800.930643 18369.957999 17655.207583 12788.372008 11449.583267 6394.922298 7022.707814 4924.309134 1513.359470 1987.252897 4152.886898 19118.834434 18209.410956 18155.475535 11485.894190 11854.245023 8446.568616 6711.591105 5561.356238 4060.140167 3414.370141 3377.229175 20993.827388 18557.091576 18246.515788 11611.408809 11345.294114 10177.625927 6376.343350 5537.987358 4394.029324 3333.542798 -808.437873 18373.831364 18527.077982 17706.620236 12404.564275 10812.166926 10172.296155 6061.897865 5020.679789 4251.832863 2522.384472 218.937432 21289.641691 18817.420094 17652.125209 13181.380965 10237.373864 10034.459273 6784.363493 5331.978575 5040.840345 3370.299498 2821.774210 20139.793107 19072.086929 17045.019384 13588.504344 10765.390511 9717.724401 8470.818322 5304.927279 5356.630820 4927.786431 -1914.403903 21609.082386 19521.453018 16496.227688 13325.994203 12075.788073 8777.704814 10090.413696 3973.721872 6179.545125 5379.356274 5414.181458 21359.176716 20046.954513 16765.740337 13078.482137 13397.757216 7370.888504 10864.199425 3348.822953 5707.065049 2253.940323 6532.901259 19677.548735 20376.993844 17436.293786 13246.581987 14294.499610 6943.525889 10979.254693 4312.944066 5225.692880 6646.803116 4563.356393 22314.663448 20045.167333 17779.051807 13866.016581 14398.435287 7992.460888 10467.721240 6300.583660 4460.329201 6588.582935 5499.166635 21569.621487 19589.592351 17820.032624 14905.441531 13637.080467 9602.254186 8757.577250 8119.744007 2906.784827 7006.984297 5578.363201 22876.872518 19688.892572 18012.931757 15684.928483 12981.187607 11067.207253 7052.582621 9203.390440 287.538936 7820.489102 4069.708298 23328.054441 20034.811661 18178.250847 16450.552977 12704.931783 12278.224888 6319.180609 9565.493317 -866.377452 7863.573073 3128.339682 23481.867232 19903.629768 18177.767036 17238.557213 12695.060482 12919.855982 6433.642529 9264.514986 106.991024 6929.373032 4629.825039 22453.539107 19934.698336 18096.587451 17805.244024 12867.157125 13373.553412 7255.743849 8813.098021 2361.340354 4606.105860 5163.618493 22450.381991 20346.352500 18178.878297 17994.744099 13211.780325 13565.786840 7944.106045 8243.498431 4417.657806 2070.707348 6887.851541 23174.208995 20505.261434 18395.413484 17952.444251 13703.282755 13548.007718 8674.294270 7930.448298 5363.050542 562.210890 8791.330756 23196.338276 20687.828264 18903.722834 17808.433036 14267.096392 13406.191669 9355.581576 7673.733475 5672.784654 232.193147 10636.134736 23223.236803 20587.147545 19412.097876 17694.807007 14811.099127 13252.365950 9935.400568 7513.109647 5878.427774 477.264830 12057.551873 22909.355640 20479.839655 19829.410626 17684.558272 15305.310414 13189.457130 10395.555246 7577.062201 6301.363299 903.328549 12707.260252 23066.474448 20481.451742 20189.183502 17766.292279 15728.064002 13287.014115 10797.842971 7842.607510 6744.583953 1383.986831 12390.395458 23458.761288 20746.520454 20590.104827 17943.285230 16074.070144 13508.686813 11107.416796 8228.758071 6972.749589 2027.221024 11066.624990 23972.133429 20906.299432 20935.781627 18191.855274 16364.429992 13806.198269 11376.407463 8686.965483 6988.204205 2753.763194 9163.913666 24537.190089 21238.054833 21195.628195 18488.168673 16619.518043 14132.709661 11468.647559 9075.186587 6892.192642 3378.325865 7263.645270 24904.756087 21637.319175 21491.417331 18798.309091 16851.423828 14433.358157 11688.736552 9457.320603 6768.511159 3773.020444 5824.614745 25175.396451 21932.717583 21715.920371 19085.759080 17063.469255 14665.606480 11926.539947 9578.644487 6715.724944 4005.791297 4933.069340 25224.733211 22245.203990 21905.425942 19308.208150 17249.659658 14822.840128 12140.302860 9633.208360 6772.489310 4141.276664 4440.540896 25227.525239 22460.728325 22044.846558 19436.704248 17376.712336 14889.930568 12321.096356 9630.981434 6875.658516 4209.192593 4171.246327 25176.207475 22658.632397 22160.405758 19475.877294 17440.768851 14855.783410 12448.887128 9563.171458 6830.343854 4291.578951 3874.421451 25159.665596 22781.548531 22238.405803 19439.770847 17470.197630 14746.770858 12504.631406 9432.991667 6859.650213 4387.853515 3644.541573 25144.719276 22834.050203 22251.799908 19345.464930 17475.393330 14588.104134 12492.391125 9295.362678 6885.794173 4388.924676 3446.378944 25091.332762 22850.410849 22203.096981 19193.883021 17456.087871 14409.664350 12424.517656 9171.813966 6888.132602 4368.196690 3261.202574 25070.775284 22927.807169 22121.380568 19026.331304 17412.710299 14216.263783 12309.460078 9067.980815 6843.884065 4306.639512 3086.763810 24833.112074 22829.106866 22009.875164 18838.155652 17345.165697 14014.173142 12162.385206 8982.297146 6741.561445 4207.701565 2936.996581 24604.331436 22640.894744 21829.566689 18627.261723 17255.265790 13811.603412 12004.793760 8912.542961 6592.334344 4099.715305 2829.924202 24231.741584 22327.322933 21551.012976 18378.232825 17143.242523 13621.274389 11856.976042 8865.918656 6424.975123 4015.192614 2776.594877 23665.917755 21896.972515 21194.286844 18050.365593 16981.297159 13451.091942 11719.794873 8843.102884 6271.981326 3979.972500 2772.541319 22986.259862 21342.144982 20762.092907 17662.337783 16760.194118 13288.671957 11581.955428 8830.227045 6148.753218 3999.348060 2797.315163 22197.351252 20660.265741 20228.287962 17157.169236 16438.570966 13089.361353 11408.856230 8797.553675 6049.549147 4049.465222 2821.341505 21263.014360 19879.711073 19626.284165 16546.064544 15976.436916 12811.282012 11150.646110 8695.633973 5941.592194 4089.645031 2812.533012 20451.060353 18984.790728 18921.748154 15845.892759 15375.856388 12425.661573 10780.465288 8493.011876 5790.485060 4077.761676 2750.796780 19522.702371 18048.233322 18129.356105 15028.263566 14614.469589 11900.332534 10271.415080 8166.744633 5563.492263 3980.726036 2634.385617 18742.880717 17104.163426 17321.034682 14227.634657 13779.721775 11284.957672 9663.341769 7737.855972 5258.527152 3794.591689 2473.855111 18025.089210 16094.189078 16396.232432 13359.149571 12858.499421 10579.562561 8975.252111 7227.910866 4888.693876 3536.366232 2287.682838 17195.820333 15253.042410 15546.838222 12573.887233 11968.009702 9870.785436 8278.588178 6685.719282 4486.039204 3237.754652 2094.736776 16630.444749 14266.325966 14592.597457 11764.746591 11076.344605 9154.369002 7595.971711 6150.203601 4082.395843 2931.808983 1907.721406 15684.396479 13501.347005 13684.571473 11028.204657 10243.470282 8483.003055 6961.755839 5640.655559 3706.870178 2651.598700 1732.684439 14965.961261 12536.551309 12742.771038 10288.252247 9455.647731 7842.315351 6385.451960 5176.651414 3375.292012 2404.773386 1580.380703 13957.872540 11764.327505 11755.161613 9548.066621 8666.751217 7237.247343 5856.688396 4752.108715 3090.182596 2200.684829 1435.443563 13082.702120 10881.013842 10862.621928 8894.424346 8005.253970 6692.664694 5396.285554 4390.149294 2868.475087 2068.833489 1332.761500 12055.302248 10113.872689 9870.353660 8115.255595 7233.259013 6108.565183 4929.382701 4004.568790 2594.566316 1866.474007 1213.054749 11227.469582 9393.502246 9106.487202 7641.407864 6715.741759 5688.251768 4575.013995 3746.319381 2522.234616 1888.317325 1159.984786 10411.231322 8730.409762 8213.532523 6840.728566 6031.212669 5116.698753 4125.885101 3314.848857 2086.894030 1519.077202 1081.087279 9824.485835 8186.159020 7731.773092 6534.546174 5548.872401 4697.869052 3781.222736 3165.806378 2189.897451 1647.043416 965.740330 9149.337088 7564.574775 6778.251243 5890.156640 4975.615674 4320.379337 3449.433439 2606.540622 1523.026508 1259.074796 965.030877 8936.759357 7221.789127 6679.311024 5649.711768 4478.891913 3788.356148 2962.969887 2616.614307 1847.922832 1054.784446 831.848152 8077.021998 7021.409808 5650.483729 5105.568519 4202.003059 3697.407314 2738.284524 2095.788672 1404.621611 973.587758 785.971163 7832.901827 6732.317026 5616.197893 5040.409190 3732.251200 3061.241963 2653.385848 1955.601818 856.793481 1159.359951 511.339212 6898.360141 6637.420389 5069.708201 4607.207421 3267.096487 3331.730359 2137.312808 2108.091290 1653.397158 576.264134 874.123666 7433.570460 5277.513449 5348.709499 4071.990726 3530.230373 2965.312326 1821.004485 1240.530629 927.752248 144.793255 783.673145 7237.541983 6531.204632 4578.122959 3612.610742 2716.144132 2111.623023 2410.955313 1520.547697 867.773860 1228.435364 157.827381 7208.329317 4672.935416 5892.437345 3041.004995 4117.331501 1873.142018 1288.452555 460.232348 328.513562 -306.691853 799.013984 5110.385264 6152.587500 6007.600818 2963.858898 2785.873055 858.951329 1362.668155 1191.507470 1213.151146 -119.387774 429.291303 6628.646562 3431.005376 5138.285383 2060.073086 3203.003248 1218.108296 951.257433 -322.059299 -65.931188 -575.407846 -106.286905 4160.206054 4962.319021 3162.332355 2326.063698 1767.636046 -69.273445 -84.400277 -604.656047 -322.002046 227.799781 -323.432637 6581.376908 4861.316730 5039.746482 1907.202716 2169.895645 1483.875109 1103.432036 1064.188509 -1137.290301 -582.137337 -286.731001 3808.688216 5118.838878 3376.980965 1885.528377 439.671715 56.830361 -1563.569048 -232.308186 -250.145882 412.598746 -263.007431 3353.104715 4565.266170 1384.759683 1117.361321 3157.454438 357.852631 -701.451784 -644.861991 -173.426299 -1311.066004 24.929419 2163.901510 4767.734971 1462.004412 3954.542217 -773.778228 596.723654 1832.123386 -1518.985624 -466.607583 -181.010994 547.356091 4893.570723 5389.418248 72.029101 -919.277309 -298.686639 43.734472 -1923.233373 -1397.749374 -2050.159841 -12.663275 -1577.937181 27795.757447 32209.247242 25611.218744 23395.553057 24909.703305 16095.371246 18503.397284 14084.872684 12941.412683 10257.954614 7437.918175 2840.414892 -7297.962603 -10101.453769 28683.973846 27762.103463 27907.027415 21745.490937 22855.937530 17060.392593 16471.024203 12925.706619 13059.226975 11866.205933 8706.896019 3310.933969 706.517830 3701.330287 34083.008155 27340.071663 31392.318796 18967.324521 27158.208103 18856.392488 17624.529223 16201.031944 13477.473897 11513.080076 7813.614958 5050.760558 1969.711276 2819.362899 24370.206557 21162.641917 29671.452144 21418.675616 21215.975708 18527.572701 19023.834063 15843.099889 12623.202393 13386.859824 10347.429369 3568.966065 2986.841556 2808.829369 26093.011904 24206.255549 24566.259744 19463.164006 20420.448433 25624.604724 14429.412198 18194.908266 16889.184802 14712.026163 11046.917852 5559.985912 3318.685195 3338.884789 24254.073548 22283.790592 26414.680644 22698.749752 21007.947217 20711.424815 17989.926472 18107.161251 17086.214607 12601.095578 8858.526500 5163.318969 3880.063432 2983.025063 25942.004310 13000.658265 22384.250027 19896.851359 15499.981341 11766.563210 20171.006867 14747.061478 12584.777760 10795.924853 8273.118713 4850.026501 2580.363304 2340.229857 13695.024520 16773.933031 22193.144966 14469.817297 16475.809797 14726.916732 17555.133952 14333.643010 11810.479963 9586.491632 8680.999685 3444.122466 2958.113012 2935.534051 21747.836036 18041.216449 15394.486256 13792.093437 15109.300533 16100.453404 13113.152685 14723.489395 6826.396027 10105.356471 8036.037063 3663.407321 3876.409528 2393.021134 15102.363615 14379.707585 10630.095134 11893.382409 11790.753154 16596.428942 11608.434769 8932.539926 9137.454108 9790.095053 10135.370571 5221.437397 5822.003220 1889.899069 8951.549355 14497.100704 11276.556374 5910.946401 9842.494262 12335.059713 11138.578730 6126.771200 7197.819257 2693.076517 9356.402575 1796.613676 4748.633359 867.491300 10957.337730 3274.224879 9507.948291 9196.094865 4429.114957 6351.969236 5174.542198 9001.135290 6675.486160 95.612862 8521.223118 2082.363994 5482.554315 1578.853438 6101.018755 3661.028338 -861.002547 5563.200826 2677.639885 3259.016377 8230.561863 9327.169119 7117.869477 3331.271165 4917.274724 701.126345 5959.264077 1303.347108 1923.537405 6985.785352 2760.511918 1804.072719 3655.719638 3717.343854 2628.494595 766.263217 3951.129200 4121.598488 1410.199610 2510.742090 4496.467382 1685.211097 415.480266 9150.345783 -765.118477 15366.573853 6960.108340 20905.874353 10842.624274 3459.831811 1729.091349 1893.534298 6856.154836 2056.380554 1618.151923 2313.648046
</DataArray>
<DataArray type="Float64" Name="Velocity" NumberOfComponents="3" format="ascii">