<VTKFile type="PolyData">
<PolyData>
<Piece NumberOfPoints="1945" NumberOfVerts="1945" NumberOfLines="0" NumberOfStrips="0" NumberOfPolys="0">
<PointData>
<DataArray type="Float64" Name="Pressure" format="ascii">
 27380.207576 25453.174641 25767.738413 26504.013551 25643.492649 30221.658583 25883.908551 30473.503448 26246.566192 27417.809524 27738.287819 25729.945388 27103.853837 27294.286140 23870.959771 26843.173428 22653.499054 25778.840726 24313.307372 27746.150460 23939.135297 26706.524607 24467.841487 26098.842827 24762.667321 25972.145129 24919.787061 26838.265462 25647.332713 27349.747066 26929.246067 24787.316548 28063.040441 26650.386019 22221.281264 22792.224178 24071.162845 25408.988397 20949.662417 23650.360496 24290.950285 27045.958338 20704.077115 23212.796678 23057.204636 23951.282568 24811.741308 24663.493029 23919.472290 23765.015005 26128.847977 23940.563283 21279.228791 22409.018677 22071.687687 25328.015307 23102.071080 21564.868004 26073.540257 23790.178883 22010.101806 21455.924302 22824.115148 23511.154872 23504.820359 22834.677574 22845.771643 22603.265507 23946.630977 23115.516833 22714.822530 21269.077369 24229.724943 23781.689040 20651.419855 21459.324508 19721.966920 20641.812319 21937.481032 21856.956081 22150.732086 21243.977944 22488.170515 21601.145120 20917.134464 19844.613994 23586.598288 21863.983554 22574.709953 19432.221593 19999.247043 18691.491911 19127.825299 19203.251318 17101.212970 17446.991762 20037.095381 19725.354639 20535.615889 17737.163855 20944.404799 17748.306325 19530.144710 15575.060490 20428.507806 17012.812361 16239.660141 16804.068960 16336.034576 16773.226633 15439.170833 16654.840768 15848.472968 16756.920302 14973.255740 15993.353242 18154.598642 16888.629870 18890.728045 16652.538532 20578.011248 17881.085608 18703.601078 15926.635870 20190.889465 17749.274867 17434.917078 15602.403835 21271.389073 18178.244546 16982.885224 16385.954882 19040.937111 18431.798026 16674.022852 16987.197401 17792.794874 18482.706877 16055.588803 17059.674929 18396.199836 18924.775556 16167.864525 17081.593319 18467.214870 18734.595569 16899.677986 17659.423590 16521.091089 17496.918990 15503.457143 16295.079930 16016.280806 16609.501331 15470.880754 16074.273838 17804.643300 18125.464154 16203.789632 15728.042925 19079.534864 18374.627129 15545.244500 16301.957725 15659.308389 17079.859670 14774.564319 15325.128392 15003.292784 15650.956125 13888.172456 14901.426207 15330.137311 16699.064403 13526.440496 15159.178785 15133.809274 17026.136819 13726.770869 14509.161646 15993.331691 16785.007818 15438.096394 15133.139105 13568.333109 14388.895041 16208.687297 15311.874615 17989.624096 14732.131927 17113.872428 15022.121512 16600.005323 15529.872573 14482.449120 13744.331864 14658.340678 14184.585958 14843.011040 14192.841797 13213.926945 12978.545252 13279.339832 13644.862418 12869.352311 13405.855881 11590.840974 12738.754391 13234.863678 13362.273515 27349.632677 26933.384158 25662.912779 26115.257134 27560.060768 25927.504740 22709.817192 19759.943364 18275.207040 17407.982401 15839.912876 14274.035979 12814.267887 12447.331173 10430.941724 8246.208197 6562.384960 5357.350159 3169.881885 272.614680 -1156.735761 -999.438251 -524.021533 -317.495495 -340.276781 -533.573759 -837.981327 -1198.444600 -1569.407467 -1916.833787 -2218.014929 -2460.155130 -2638.417601 -2753.847801 -2811.429941 -2818.429666 -2783.095992 -2713.731334 -2618.092490 -2503.059762 -2374.503613 -2237.283189 -2095.322878 -1951.727139 -1808.906982 -1668.702388 -1532.494387 -1401.315920 -1276.037216 -1158.068229 -1053.665804 30427.677305 27210.624890 26008.709022 26941.748980 28754.544185 25642.519829 22846.526222 20299.175434 17797.805658 18431.057034 16351.533249 14377.068166 12892.302429 13722.388514 10213.391698 7281.167329 5180.354307 5848.789581 2795.702720 -3600.131022 -3149.679646 -952.505998 -549.925721 -358.295950 -375.115637 -558.122382 -851.993174 -1203.289347 -1567.082113 -1909.451033 -2207.522049 -2448.189693 -2626.248272 -2742.371795 -2801.208923 -2809.748822 -2776.032409 -2708.220417 -2613.984975 -2500.165821 -2372.623758 -2236.227648 -2094.922030 -1951.835669 -1809.403915 -1669.487989 -1533.480307 -1402.380041 -1276.763012 -1156.198824 -1035.195079 15811.050940 12242.648260 9136.443810 8668.066196 9757.427551 6885.999425 4318.853000 3414.554248 1967.527281 1628.260185 1407.558910 1289.063301 1230.750975 1177.760973 1105.154673 1005.850202 881.861322 739.017932 584.179750 423.916551 263.957087 109.009271 -37.249182 -172.102910 -293.695653 -400.911246 -493.249785 -570.706402 -633.658218 -682.763599 -718.876310 -742.975645 -756.112209 -759.367884 -753.827727 -740.561175 -720.609887 -694.979878 -664.636019 -630.497564 -593.433883 -554.260053 -513.732314 -472.543633 -431.319707 -390.615697 -350.913464 -312.616199 -276.020073 -241.140512 -206.616303 14337.141331 12298.074563 10406.903848 9754.524133 9209.145173 7235.071626 5163.139391 3655.656190 2479.208068 1783.609707 1452.924162 1307.732884 1235.294215 1175.559878 1100.492235 1001.003790 877.880535 736.274380 582.705786 423.591684 264.602016 110.430564 -35.238400 -169.673291 -290.997050 -398.070775 -490.371573 -567.872556 -630.930750 -680.186994 -716.480452 -740.778804 -754.123844 -757.591076 -752.261147 -739.200535 -719.448935 -694.010988 -663.850500 -629.885775 -592.985253 -553.963085 -513.574621 -472.512037 -431.400451 -390.794976 -351.179582 -312.971318 -276.550574 -242.437590 -212.438323 -978.053050 -943.063905 -948.480834 -914.823346 -873.541268 -854.362467 -780.204091 -777.724257 -700.391791 -700.511838 -627.895841 -628.428319 -561.551235 -562.126139 -500.919820 -501.475274 -445.673986 -446.198935 -395.495693 -395.987941 -350.064685 -350.523886 -309.060365 -309.486801 -272.165288 -272.559611 -239.068363 -239.431502 -209.467508 -209.800610 -183.071787 -183.376164 -159.603057 -159.880149 -138.797212 -139.048545 -120.405042 -120.632196 -104.192767 -104.397351 -89.942301 -90.125923 -77.451255 -77.615506 -66.532751 -66.679187 -57.015060 -57.145185 -48.741093 -48.856351 -41.567800 -41.669563 -35.365468 -35.455034 -30.016972 -30.095559 -25.416980 -25.485722 -21.471139 -21.531087 -18.095258 -18.147381 -15.214493 -15.259677 -12.762555 -12.801610 -10.680942 -10.714601 -8.918210 -8.947136 -7.429274 -7.454061 -6.174756 -6.195938 -5.120382 -5.138432 -4.236411 -4.251750 -3.497125 -3.510124 -2.880352 -2.891339 -2.367039 -2.376300 -1.940861 -1.948647 -1.587874 -1.594403 -1.296206 -1.301665 -1.055772 -1.060326 -0.858038 -0.861826 -0.695798 -0.698941 -0.562984 -0.565585 -0.454501 -0.456648 -0.366083 -0.367850 -0.294164 -0.295614 -0.235770 -0.236956 -0.188426 -0.189392 -0.150072 -0.150855 -0.118992 -0.119623 -0.093757 -0.094261 -0.073170 -0.073567 -0.056218 -0.056524 -0.042038 -0.042265 -0.029879 -0.030037 -0.019071 -0.019166 -0.009004 -0.009040 0.000898 0.000917 0.011187 0.011261 0.022408 0.022536 0.035095 0.035276 0.049768 0.049999 0.066904 0.067180 0.086907 0.087215 0.110033 0.110354 0.136303 0.136606 0.165365 0.165602 0.196312 0.196414 0.227441 0.227309 0.255938 0.255439 0.277487 0.276440 0.285778 0.283947 0.271913 0.268997 0.223706 0.219326 0.124859 0.118545 -0.045973 -0.054792 -0.316230 -0.328235 -0.720579 -0.736570 -1.302115 -1.323017 -2.113595 -2.140455 -3.218643 -3.252625 -4.692869 -4.735240 -6.624826 -6.676937 -9.116714 -9.179967 -12.284735 -12.360541 -16.258984 -16.348709 -21.182782 -21.287688 -27.211337 -27.332506 -34.509646 -34.647898 -43.249566 -43.405363 -53.606014 -53.779319 -65.752394 -65.942262 -79.855825 -80.058389 -96.075670 -96.272350 -114.586717 -114.672103 -135.746344 -135.105655 -161.306987 -155.977768 -182.319635 -172.869907 -191.010931 -181.229271 29121.237595 31043.068896 26116.568243 29128.470862 26697.862324 21757.802851 27140.582003 27138.200533 23620.386542 21534.916740 25449.641880 33650.019073 25500.924075 26134.590222 26054.399028 20149.856992 15167.108432 18380.901176 23456.589188 21983.374162 25313.640438 20974.097448 24625.655208 28224.702469 26967.708865 25807.666855 25734.589373 29089.463379 20949.692873 25115.576397 21226.995519 8130.693126 26087.353534 31655.743931 28829.622843 23800.947189 15376.089440 24603.949313 28052.043538 22374.106025 15119.449665 25332.248454 20180.061389 30202.731206 21439.623381 13105.848869 32156.744070 27977.377368 29630.998577 24571.052937 26053.453567 21894.399436 13033.497261 21916.081609 24169.149549 24372.656096 29043.875930 31229.572485 28719.362604 33214.303956 24522.571388 29325.145356 25615.880669 22805.227403 21803.431873 28808.739541 28804.093993 28478.093051 27342.896433 30569.157309 31248.204087 26688.716482 26193.272372 25780.340138 24211.634800 25125.414285 14460.923342 24359.998893 28166.358299 22487.374342 24154.004275 26841.744850 25020.195718 19820.718712 27899.892384 28967.632514 17003.529743 18220.539981 24714.375070 23918.257445 21733.025193 26893.321915 27132.912700 21276.980692 22711.184022 28498.898947 25425.076252 13543.694675 22576.554565 25698.697496 25045.386336 25464.384910 24892.271664 17423.329139 23915.300406 18451.026223 24887.946590 26250.649686 9100.133690 18975.774649 24767.220214 25209.005422 25764.971404 10314.568534 29581.788770 17225.806163 22401.769462 12240.432473 14294.210046 9930.780615 7876.650002 28630.599811 28765.945664 13976.418006 28692.505918 11722.458681 22559.970616 16117.408928 17164.378219 20270.684185 17773.776801 15648.978763 24545.398754 25277.413751 23450.136131 24625.340313 17768.741098 19605.904142 19006.560827 12052.544628 21584.762008 22522.084667 16652.550254 25084.916324 24434.276602 25127.696277 26856.727005 23375.699226 20671.740588 19114.617340 17711.788984 20521.406063 11626.227756 15059.284305 22718.246535 20932.532752 24635.687013 28162.027609 21149.986581 21082.644355 16526.986330 18995.838266 9513.782731 10305.786743 12899.255178 22537.543103 23654.984857 23472.173951 20292.491748 14968.515512 16089.315336 18122.990168 14483.034337 6485.767539 8891.447521 3944.886134 22617.536366 27627.321218 24821.905615 21553.527274 22753.968930 20581.880628 14991.915031 19165.471174 13171.211545 4902.371580 5555.245837 24250.303453 21642.137613 22499.839658 21830.342278 13159.505236 6872.928755 9993.631049 10626.194928 6605.488350 4543.087255 4404.699744 19750.675994 21905.508497 22473.685982 22543.690513 21378.785748 9530.451057 17067.417499 8933.353316 8788.920835 7033.077420 4391.455637 22790.147920 21386.904124 22036.712945 20862.478845 12237.925137 11204.365224 10711.343091 8760.333991 3405.221883 5823.579192 5461.689618 22327.454972 22071.550174 26510.268098 23381.059648 13528.507129 7114.673667 5199.794678 6382.821808 3319.607769 6171.724563 3276.562747 20843.930612 21918.025853 21274.642612 18043.938082 14607.693236 9140.757597 8750.240165 5388.315416 7008.454013 7968.882829 3413.819597 22077.542437 20338.058321 20739.974794 16182.391805 14659.991806 14807.668901 8863.881545 7265.966831 8712.186946 7811.215240 4044.015093 20957.036863 21757.566019 17587.423770 18690.440101 11226.925223 14914.759519 16735.161998 14364.904317 9348.682236 7329.813212 -1570.311531 23894.127161 18564.804137 22153.409512 19315.620053 16260.769782 13950.842420 12380.613372 2753.231819 13455.910238 7795.597727 5622.174498 23047.239281 21388.920773 22400.922332 19121.241860 19271.224457 13105.122632 13206.502644 10118.199746 10102.963101 5114.728775 4433.102583 20916.810466 22126.256302 18399.555044 17676.095997 19041.346441 7485.540511 16823.883561 8216.733907 7196.632252 4242.415230 3417.746722 18055.306268 18347.512097 16561.202094 18288.652396 12395.040835 16797.758764 14036.035829 14643.284886 4823.478498 7155.564992 5277.527226 23177.566247 21380.580912 20965.445675 19070.743159 17880.290322 12623.072964 9010.061316 12793.436623 9067.351091 11172.220444 9463.767620 20224.846021 19692.548213 15064.905883 11820.556243 17012.219306 10942.469761 11013.588561 8069.828806 8994.087664 7254.346031 3547.029199 22307.627337 19288.422266 20605.335349 16554.473521 18727.291632 9035.343766 12058.305236 12221.594851 5687.351815 9316.376957 5206.189673 22087.086949 20513.978936 16019.583728 18396.191570 17941.436358 16433.850748 12510.603313 9998.093177 9101.828362 6854.516685 7437.548168 22363.875373 12251.880336 20654.011637 11917.139620 13987.292732 14449.196647 7783.647529 7778.686564 6675.894790 7432.835215 4346.383130 21835.344125 20433.308554 18573.629378 15747.000210 16680.319613 10879.800567 7341.937502 8072.315912 7389.792502 4033.973944 1555.858322 22520.211219 18842.530593 16530.864823 16477.365007 16211.002975 10440.904226 12090.358702 7693.255682 6739.424560 6400.542400 2711.542275 20651.843124 20319.692839 19841.722696 17278.099309 14087.796252 13483.332635 10581.306370 13251.787936 6177.518417 5897.954240 4578.780874 22544.072764 20156.400210 15023.469423 14663.001025 17839.181340 14121.693678 11104.719599 12086.275307 7746.257488 6793.184858 2806.173141 19749.551737 22182.792185 19234.139507 15117.925838 13008.826763 10791.202949 10179.609969 8734.078886 18821.026055 2536.345000 4350.486172 21259.310121 19073.765950 18538.731479 12187.979968 14740.453103 9303.567033 9505.573168 4959.386130 8671.107844 4557.312490 4908.736936 19642.351181 16032.543937 18535.096387 14788.596272 7577.381161 9237.706000 7872.002183 6856.222980 5797.452365 6822.277863 1330.688037 19152.725831 19184.242318 16800.150435 17517.777417 15404.934524 11948.101018 5568.659309 7288.318687 9143.896527 4421.849243 3637.782012 17496.089466 18188.330178 15439.435031 12715.503938 12538.656498 11248.674709 14061.125435 5538.089196 6343.207333 4186.113413 3949.131885 16330.309713 19165.062175 15805.196442 13446.672571 15878.029403 7694.645216 10715.039233 9871.665874 7943.218599 5068.180836 5624.706498 14449.893400 18805.479857 16147.008800 14890.222069 9826.935598 11671.267924 4753.571785 6998.940762 5983.445751 2939.556189 6944.856184 18815.629290 19753.578149 16512.230470 9050.361428 12630.589507 11035.088099 7251.811897 12575.853635 4892.408528 9571.009352 3119.085512 15892.849344 16504.043129 18583.826713 5573.350003 8844.682638 6689.251321 5223.821890 8372.692689 3103.307713 8518.194425 938.934907 17411.428921 14544.529639 11246.378635 16367.833925 9880.437626 12539.062805 10683.970143 4117.692155 6470.156885 7330.826193 3486.689474 18261.583036 16101.113387 18082.311142 15443.497025 11227.287631 8437.297830 6264.738636 14246.793849 7373.816592 4403.787009 3899.515382 18921.047525 14859.696752 16536.224683 13032.789381 7001.525398 12368.385379 13966.109769 5657.758123 8779.978515 4309.784636 4330.523224 16992.345768 15953.306797 16539.684945 13472.051530 12543.284902 10400.926634 14069.424291 9996.094148 8545.860611 4334.407028 2113.269007 14215.677967 13613.475502 20101.523593 15846.910456 9889.907873 12685.010933 9406.061103 8989.732983 8550.375773 4920.586906 5475.504604 15671.972025 14936.854953 13828.477779 15516.053748 13937.135612 12265.291911 11252.095114 9641.824774 6313.255027 5284.321840 2821.909930 18186.886664 19117.478612 15205.664433 14180.731016 11824.479494 12137.363114 9219.471156 7079.973511 10309.782698 3903.586874 6824.978410 17329.720545 17701.618510 15803.315154 15340.652180 14326.683459 11694.002963 6921.663312 9692.248081 5294.213550 5204.300367 2898.337443 17176.358810 15994.173302 14464.201277 14364.550164 10010.016306 7029.180028 7748.129578 6214.976375 4194.930272 3553.954365 3419.939823 15043.935694 18066.072212 16552.207083 12606.619006 11441.177844 7807.172216 6744.165722 4927.174280 5678.952366 4673.959883 5055.884317 17338.801228 20142.549384 14632.613182 11888.774699 7329.908729 7486.670600 10042.075211 5537.797651 5599.336297 4128.342808 1929.880353 19061.248787 19343.160053 14272.731959 5280.257457 13139.393728 7764.022477 11685.306543 7437.819593 7339.835212 2940.349996 2688.906223 16776.376458 13405.321548 16305.783760 12272.283101 11195.485213 11543.341604 10561.960028 14167.666819 4865.831307 3632.051314 2803.950556 18077.552529 16211.984027 17053.955235 14210.688084 12209.459099 9451.709386 10493.872984 8938.747593 6686.035761 3156.978108 6965.445536 15908.203624 11494.450828 14105.884484 12786.868871 11983.291454 11474.092855 6823.880058 4532.837906 5773.831842 5144.481124 2347.520903 17178.834867 17181.866936 14972.723467 11837.593286 14123.043888 7445.676030 5567.280393 5841.790262 8538.217752 5227.417406 3508.588418 15156.303940 13976.196905 14518.485810 12745.140191 12729.898167 11763.410622 15960.899680 6080.310539 4951.698850 4766.388908 5717.781426 16522.813721 18063.371231 14757.353714 13216.930716 13215.610148 12294.114531 10972.280632 9573.623350 6440.748036 5633.592845 5422.083032 14078.314644 13331.164676 15265.213767 14240.664685 14043.389676 13201.336047 11037.768153 6648.150672 7298.736309 5508.623517 4739.488469 14515.655366 13953.130093 16513.566802 12630.712925 7145.174673 11689.517858 13123.490390 7958.111136 7950.724804 5175.749656 2800.286953 16163.482839 14590.912836 15716.001492 14556.757892 11774.065591 14864.055950 9769.742541 9288.689783 4219.327130 5887.622558 3449.023289 14897.459688 14626.450152 13870.750194 15691.554812 13912.315880 8989.851750 9233.895723 10261.461368 7013.176704 6012.531815 4824.481020 15931.310379 17684.871759 12289.590041 13224.258686 12066.984354 13580.233810 12580.136593 7377.043340 10908.458392 5586.189031 3651.044266 16778.137490 16248.251992 17466.490552 15674.253056 7817.980995 11406.870716 11141.770989 7538.039413 6594.956561 8420.879172 4812.996674 14732.541784 14023.400408 15438.348957 15636.690423 9601.531378 13332.056133 8060.344096 10087.731647 7038.746265 6921.352696 5075.988676 17875.560816 12881.459375 17585.056403 18420.754467 13183.259605 10115.762203 10162.237764 8478.738490 9262.706987 9931.232819 4226.314975 17417.893635 15138.244749 17100.408345 14318.010277 10755.074457 13342.266811 11148.682195 7775.586179 12589.886932 2650.039683 3919.658017 17815.166783 16600.879916 11355.876937 17585.015543 13658.536884 14232.429431 8978.928015 8420.816011 7573.868837 4869.354664 4711.338671 17463.365381 17341.351761 16334.961100 15570.081063 13419.255594 11339.464587 11507.881949 8458.947852 7099.984327 6690.374026 3977.529892 14062.374748 17752.815075 12474.802573 19250.884043 11808.934980 10347.353980 11668.662512 4784.993658 7438.963567 9462.007168 3724.863270 16701.549512 17402.598034 16455.978033 17585.640432 12881.780396 12008.076081 9604.724627 7868.846150 4994.019510 7367.536351 789.073684 17960.171011 16369.601210 16201.009904 16376.015859 12541.251625 11069.221402 8684.795431 8529.405737 5209.228356 8116.413191 2902.928587 16974.729316 12819.552061 13930.961374 11951.051773 14155.554149 11570.734468 14218.244218 10971.638142 8179.815300 6143.138219 5979.881640 17678.835578 18587.094057 16689.979972 16833.032355 11112.605493 9113.367070 11706.726274 6885.122058 11245.703469 3422.325239 10458.542766 16888.123764 16955.113404 18069.034161 13570.009769 10631.545255 14131.272286 9700.655947 11181.835220 10414.406529 3033.773719 4808.681945 17147.417044 16763.728970 17678.349841 13410.670175 14445.646623 15282.673265 13738.406000 12022.866443 9191.121440 10274.449861 5023.253275 18625.491278 13832.741203 18773.420918 13831.236741 14928.271385 11502.608441 11118.533772 8959.698055 10222.637615 10684.762165 2922.294297 15462.957001 14051.539017 16890.825495 14868.625575 12914.746302 11835.839303 9015.330984 11984.109488 9052.448869 8706.547488 5909.091792 16905.534410 14565.859839 14719.476241 17921.197868 12408.436320 10422.848714 11882.229054 8439.046808 8912.039649 8282.108605 5518.472967 15666.676146 17039.966772 12697.311599 13827.709829 14971.310631 11971.449505 11057.722167 9552.974453 4741.204469 6179.028115 7074.534860 16903.400624 12568.582771 13963.110140 15597.668595 11804.931523 11679.498785 10856.922659 7220.947128 6916.571281 4344.168477 4919.575037 16172.752158 17093.288977 13241.923543 13107.899316 11924.757294 12033.486672 10355.927799 7240.581313 5405.044055 3563.946747 4720.914598 15717.573286 14461.767368 12128.590411 13053.068193 11162.540838 6216.304177 9961.217335 11321.706667 8210.769108 8542.323188 3693.239067 16454.164605 16494.597188 11201.790833 11100.526306 7601.722344 11461.018957 10016.882755 9265.961851 6952.646529 2729.880315 3905.176817 14965.467324 14112.941392 14672.715966 16181.490002 8567.818587 9557.788232 4703.630707 10213.504962 8375.772830 9058.386061 4407.335334 15170.115664 16346.608387 11797.201808 17655.535441 8826.528903 10574.994371 8211.081326 11486.320751 7177.132819 5841.053917 9154.189267 17466.309414 17286.659879 15999.303288 16976.311626 18215.702187 9573.784926 10409.150188 8398.270132 7121.213009 6772.945720 4371.853250 14006.936495 13398.050952 12531.485534 11709.567119 11624.606659 10548.549682 4737.482245 11703.161118 4218.961126 7396.771261 3981.528180 14875.138717 12895.457756 9440.081032 10760.763063 8555.028145 11867.792667 11193.255414 7828.557101 2880.820426 5942.656791 6452.421537 10920.346008 10354.535738 12862.293243 12109.530397 12128.373337 7900.888178 7660.429950 6942.779164 7167.524014 2820.339555 3727.406155 11825.854973 12995.736893 13091.030150 7766.857700 10038.543801 7325.010367 10967.460633 7590.269239 5516.641510 7098.250147 4218.961469 12736.262238 13373.938326 11179.489642 11680.066312 11448.513213 5694.892102 7578.730685 6600.492414 7234.097842 4420.663284 7630.457626 11960.451157 8767.759397 12542.179510 12948.626974 11978.370587 5707.840296 12250.058591 4374.547626 6342.549913 3594.424171 3230.731103 13632.662160 13915.586945 14298.669225 12660.290082 10095.581174 13559.856486 10488.245456 3450.267590 5702.028476 4776.898645 6407.751636 14999.667027 14508.090834 11033.399630 10014.877388 11548.704078 10226.944195 10481.199989 12166.405120 5324.854507 5342.715920 5636.799966 23857.686114 31622.720853 27603.553619 27239.960872 17505.156802 24753.542086 22599.520936 25373.247039 27113.674806 20843.258731 17352.800087 12926.345086 9323.914711 10705.234583 26488.288637 15597.797516 29442.319592 26242.624284 12159.669215 27277.121742 16694.029040 11957.568500 23723.349687 10952.906316 14032.063671 9199.799903 6964.080187 15007.834049 14080.242269 21407.256939 19305.868059 10777.096402 9682.100098 12647.299355 16208.261047 15229.647046 21701.889539 11076.026682 7894.467611 8333.192710 5977.331643 6564.537107 20356.274254 15701.291276 16335.022169 16660.633360 21516.580104 18939.821210 18919.181761 19844.442734 7454.716668 22278.045872 15413.861858 12221.415310 9051.081987 8520.864851 18458.074758 24798.239309 17874.579806 14495.536793 22632.124763 17571.002158 18623.589912 14505.707352 17635.702102 10739.832929 12386.525550 14108.810118 6535.037504 7167.485902 16609.823843 26650.307289 14852.844800 25103.393599 20714.079991 25433.849401 26161.842076 15274.803633 11111.777520 12521.728667 12560.901767 9645.420743 18088.884694 4702.323880 20402.363425 8862.139595 15819.512816 18752.005052 8655.129540 20814.274321 20637.219217 23492.345177 14878.147289 13018.281352 11800.294534 7093.831522 7480.765866 2717.221113 11196.960734 12300.135114 12248.180598 23168.039274 16178.912621 20617.603016 12480.183050 12292.329297 7589.840987 9144.686458 14703.490857 6228.357109 3918.908593 6402.015390 19843.218668 22817.749898 11019.939157 7537.782273 16713.909900 11260.674229 13272.933568 9967.066023 6958.720128 14048.890888 14190.887767 8648.448033 5985.372179 2462.652057 12080.694881 12529.115873 15449.002315 10940.423533 14581.446748 11332.176450 15070.445520 13944.852705 12855.534693 8410.092915 10404.742012 6950.885425 4349.203610 10395.792430 10777.208772 12898.073511 20617.834245 20910.871903 8072.456090 9371.863162 8886.287545 19562.336195 9905.137226 15396.848516 20950.690957 12426.649143 9700.096820 8855.710950 13223.998595 7241.075480 12607.628445 23813.710447 10570.820949 17006.523566 8373.886089 13902.575131 7235.932886 11446.197446 11654.030979 24860.205726 4687.880114 5328.139359 8752.621312 6169.551379 4682.819248 13727.844173 3796.591316 5577.028268 12780.931984 19054.093346 18417.793151 10226.724953 7070.163366 9225.980836 9972.515695 8136.834268 6054.071248 9569.711286 7854.777020 7297.293208 8832.416698 1965.890291 7847.460523 14663.625415 8433.948451 13201.783817 8190.164490 5675.653776 7074.202096 6448.283671 1663.728089 11773.225819 3246.126754 307.341088 14641.599306 11460.813995 8653.040519 2573.967526 3785.954813 3455.735196 6392.878432 5197.910511 3742.056323 3851.526271
</DataArray>
<DataArray type="Float64" Name="Velocity" NumberOfComponents="3" format="ascii">