<VTKFile type="PolyData">
<PolyData>
<Piece NumberOfPoints="1945" NumberOfVerts="1945" NumberOfLines="0" NumberOfStrips="0" NumberOfPolys="0">
<PointData>
<DataArray type="Float64" Name="Pressure" format="ascii">
 16613.322411 17007.013944 17225.502176 17584.077123 17894.370132 18420.106626 19136.031831 19444.398012 19750.943650 19662.780859 19182.843771 19338.643934 19136.780405 19702.108978 19979.082517 20268.661973 20349.306648 20504.822762 19070.386536 19454.975624 20785.631547 21303.682934 20987.626379 20744.356448 19153.702863 18813.232492 21100.858856 21204.982053 19768.671713 20327.953148 19490.342858 19434.930150 21182.076710 20319.303055 21364.529497 20053.161323 20721.266032 19468.081196 19971.526279 19175.861579 19428.672039 18644.561108 20412.479915 20359.417832 19944.539238 19338.963127 20714.207185 19458.909753 21197.896086 18916.713061 20338.508858 18959.139089 18262.989343 17736.635535 19352.064493 19004.696854 20298.985100 19113.204102 19688.733971 19215.557979 18594.768579 18473.224147 18312.781144 18086.300568 19498.680333 18656.973067 19480.657999 18413.214041 19383.779581 19313.140169 18103.986269 17442.216407 21054.156915 20418.187686 19817.138198 18468.647034 21731.806277 21070.752615 20283.927050 18467.497483 21112.869312 20014.618950 18235.058022 17175.007895 19892.119289 19242.813345 20683.192384 20212.710937 22442.188856 20934.802757 22453.744931 21305.939426 20324.015910 19570.293756 24013.571155 22690.549703 24056.969615 22538.171497 25747.462979 22997.116823 19807.319234 18573.917242 22262.683351 21314.002928 25289.632478 24323.072417 25110.199688 23934.190249 27231.053477 27326.973290 21413.171770 23141.544316 23802.094709 24740.983793 26557.901434 25489.683749 26793.049683 25182.139760 29134.078517 27291.239049 27947.262372 25262.240162 30218.560475 28561.221577 28981.508592 28287.293557 24466.644112 24541.864452 27686.097702 26327.369225 30975.756793 30853.903812 22864.338018 24009.060913 26141.086845 27247.701766 28370.635977 29117.755495 25933.354338 27012.384110 27578.407248 26141.906973 34434.999811 31670.070805 27635.225110 26208.661547 28221.357463 27843.180129 27500.506072 25743.253269 32352.039876 28404.866915 27768.088282 25009.873151 30686.988150 30697.539531 22765.960050 22047.128358 26685.647995 28478.287877 22066.504118 24223.626388 27209.207064 29041.054339 25654.926291 25529.514674 26680.219523 26848.599042 26872.378982 29055.452126 24371.142403 27460.920114 28697.718126 30825.821143 27672.826489 29628.680384 30365.454539 35347.851790 21497.869090 24669.584630 29376.402357 30103.774323 34860.660058 37047.083529 26790.149962 29197.944413 26761.957315 29144.145267 22071.150457 24130.301286 27549.411451 30051.307947 27628.677461 28784.140192 25635.996103 27871.427433 25214.243953 27390.946312 24625.126400 25756.589103 23643.304009 24822.701445 23669.096721 23683.841554 23831.736145 23234.462178 21221.262658 20535.786838 20655.947020 19889.084189 17616.120492 16836.085592 14763.567057 12972.695689 11029.225197 9083.591776 8225.609887 6591.502862 4959.902047 3859.440050 219.979891 -3386.666002 -4159.337892 -3931.026115 -3487.269293 -6057.784246 -9673.315129 -9496.144927 -8970.104345 -8559.765023 -8102.522696 -7647.142482 -7208.048256 -6790.660724 -6396.786104 -6025.782070 -5675.353320 -5342.259604 -5022.956434 -4714.141100 -4413.157137 -4118.225704 -3828.506053 -3544.017160 -3265.467919 -2994.044181 -2731.192307 -2478.426430 -2237.174306 -2008.666709 -1793.868429 -1593.445010 -1407.757634 -1236.878456 -1080.619533 -938.569848 -810.137388 -694.601078 -591.219906 -499.689885 -422.969177 18328.119589 17201.509560 15606.123744 13894.190510 11298.653844 8125.773273 7821.379512 6052.811636 5013.642379 5307.541034 96.946505 -4397.340982 -4144.078496 -3818.029241 -2661.134409 -2388.445925 -6599.904915 -8772.745357 -8705.373610 -8498.972585 -8091.179435 -7648.131777 -7212.313738 -6795.798021 -6401.928026 -6030.503098 -5679.430544 -5345.611594 -5025.614658 -4716.221193 -4414.825651 -4119.666625 -3829.892551 -3545.491993 -3267.133237 -2995.959466 -2733.378150 -2480.871723 -2239.844764 -2011.513229 -1796.834385 -1596.472065 -1410.789991 -1239.865679 -1083.518091 -941.343150 -812.751454 -696.996982 -593.145397 -499.679509 -411.895316 19900.587913 19032.656113 19503.919726 19431.152823 18358.121471 18479.745704 15967.066920 12823.984824 11821.541746 11541.263111 11000.738408 5328.646335 5441.257466 1993.746690 -1580.948641 -1742.444494 2649.493672 1010.958488 613.349205 877.227094 511.060093 -74.182255 -722.311978 -1343.499655 -1886.113516 -2321.759271 -2635.898518 -2823.021701 -2884.717573 -2829.162751 -2670.826457 -2429.662980 -2129.546625 -1796.078684 -1454.121769 -1125.497916 -827.242495 -570.665932 -361.285161 -199.503183 -81.788129 -2.058366 46.988012 72.780346 82.105240 80.663268 72.902204 62.050588 50.268993 38.820982 28.031913 19233.635434 18630.239078 18656.135368 18074.237391 17590.077280 16518.693472 14911.131218 13209.634537 12462.693135 11100.282527 10234.175501 8161.776673 6518.280473 4568.127665 2630.308864 1884.461110 1957.809658 2151.606760 1840.246492 1257.901238 625.340214 -40.349027 -706.307722 -1327.330078 -1866.441228 -2299.141530 -2611.662623 -2798.569118 -2861.445443 -2808.422268 -2653.806689 -2417.237203 -2122.144556 -1793.629947 -1456.086975 -1130.977268 -835.133290 -579.832109 -370.704525 -208.368730 -89.554667 -8.439249 42.060218 69.212233 79.704597 79.193896 72.126074 61.758005 50.310989 39.224266 29.669497 -369.812093 -345.598160 -352.300600 -329.694111 -307.306563 -295.104716 -254.167762 -252.833288 -212.388385 -212.670841 -177.227548 -177.719844 -147.385153 -147.855261 -122.105343 -122.520692 -100.775704 -101.136025 -82.856438 -83.166605 -67.867143 -68.132624 -55.382130 -55.608186 -45.026664 -45.218191 -36.473080 -36.634564 -29.436721 -29.572228 -23.671831 -23.785010 -18.967502 -19.061600 -15.143774 -15.221657 -12.047947 -12.112125 -9.551151 -9.603805 -7.545192 -7.588208 -5.939703 -5.974695 -4.659576 -4.687923 -3.642692 -3.665561 -2.837916 -2.856290 -2.203353 -2.218058 -1.704836 -1.716556 -1.314622 -1.323926 -1.010287 -1.017645 -0.773784 -0.779580 -0.590652 -0.595200 -0.449351 -0.452906 -0.340712 -0.343481 -0.257479 -0.259627 -0.193934 -0.195594 -0.145589 -0.146867 -0.108936 -0.109917 -0.081243 -0.081993 -0.060392 -0.060963 -0.044747 -0.045180 -0.033047 -0.033374 -0.024327 -0.024574 -0.017850 -0.018036 -0.013056 -0.013195 -0.009519 -0.009622 -0.006918 -0.006994 -0.005012 -0.005068 -0.003619 -0.003661 -0.002605 -0.002636 -0.001870 -0.001892 -0.001337 -0.001354 -0.000954 -0.000966 -0.000678 -0.000687 -0.000481 -0.000487 -0.000340 -0.000344 -0.000239 -0.000242 -0.000168 -0.000170 -0.000118 -0.000119 -0.000082 -0.000083 -0.000057 -0.000058 -0.000040 -0.000041 -0.000028 -0.000028 -0.000020 -0.000020 -0.000014 -0.000014 -0.000011 -0.000011 -0.000008 -0.000009 -0.000007 -0.000008 -0.000007 -0.000008 -0.000008 -0.000008 -0.000010 -0.000010 -0.000012 -0.000012 -0.000015 -0.000015 -0.000017 -0.000017 -0.000019 -0.000019 -0.000018 -0.000018 -0.000012 -0.000011 0.000004 0.000006 0.000039 0.000042 0.000106 0.000110 0.000225 0.000232 0.000430 0.000441 0.000771 0.000789 0.001328 0.001357 0.002226 0.002270 0.003657 0.003727 0.005930 0.006040 0.009540 0.009717 0.015299 0.015584 0.024546 0.025012 0.039520 0.040289 0.063968 0.065242 0.104135 0.106250 0.170330 0.173822 0.279300 0.285008 0.457683 0.466871 0.746768 0.761264 1.208635 1.230949 1.933391 1.966698 3.046689 3.094228 4.716406 4.777998 7.160812 7.212664 10.684260 10.564906 15.994913 14.618753 20.977904 18.302377 23.165443 20.284849 17546.061305 19391.232723 16829.251978 18169.895156 18726.277262 11775.199030 17500.938942 16001.182004 13968.183321 13046.896984 16292.576552 18302.220146 17383.711662 13560.238175 17723.577082 13087.356530 8589.607899 13698.467041 13459.384424 10792.036980 14859.425768 11992.001725 19321.122028 17093.397295 19698.993451 18581.892522 16561.373400 18762.376330 9256.085559 16471.539959 12969.906968 3939.357949 18715.204994 19248.932511 20185.555683 18395.018058 10998.048726 14281.673042 18268.027917 12395.878519 8797.424907 14366.899180 7495.446838 14872.521971 12475.278426 8323.734802 19790.942249 20238.600303 18140.573607 15357.971879 16037.791010 16306.424450 9436.501948 15481.267539 15368.690869 15394.465644 18234.404523 17977.320612 19771.989484 17518.728728 15106.908425 19259.172275 16238.859256 12608.436281 11469.125729 18232.889439 15786.531600 16640.841700 19744.378963 17851.337872 17296.560970 14667.200393 15115.480609 15805.872028 13423.253939 14667.272080 6754.542930 17857.694982 17884.892649 17052.858236 17076.590827 20217.995929 12877.810305 14219.371728 15732.595546 15256.874425 10310.414405 10112.673819 19194.916541 20063.867107 17393.298182 18059.305702 17655.120090 14722.542101 11920.064583 16088.861307 14102.096349 11412.663544 14474.862342 19147.032438 16049.195192 14285.659503 16232.072675 10871.706586 18459.460015 12280.177985 13753.248786 15255.978502 4549.199712 13004.605243 18306.442667 15439.047135 18073.521868 6912.035894 17882.324846 10627.770155 15519.203099 7865.457070 8816.508804 7152.708767 5299.109334 17474.997735 17702.499901 11316.013558 16597.254740 5795.614136 13201.610995 9973.770999 10715.626307 13044.531168 11536.170805 9994.952051 19172.110899 15323.881433 16664.313884 13859.445798 12759.302204 14392.871046 15167.633289 10197.573130 15040.862540 15521.396251 9686.851060 17129.520044 15763.867037 17880.461231 17776.573363 15554.419379 13647.826900 14299.773755 12113.757102 14131.925897 7223.742199 8760.199967 18987.816051 16918.409276 18202.682138 16245.496745 12882.218187 17763.474802 11490.684578 11780.244099 4855.389731 7707.177297 6388.358701 18015.273325 17274.024332 16880.235871 14936.311253 10998.846670 10632.780834 8955.162020 7339.560749 4140.685302 4717.090477 3671.838568 17109.989966 18208.132450 14747.856153 17663.434740 14787.879484 15058.314743 11140.827708 13736.316171 7314.623962 563.818167 2244.015873 18098.597698 15149.843116 16179.379792 12006.572385 10054.734399 5962.147071 4012.650045 3807.622262 2381.686996 2595.571670 2844.558684 17246.430528 15328.400497 15398.780282 15445.543384 12310.621972 6240.228943 8198.919224 6910.006067 7438.792220 2714.048490 2486.948022 18847.275686 17837.835020 17301.927211 11806.604883 6759.371554 7165.448320 8768.744926 3196.782802 2495.974987 2639.937468 3669.371906 19358.868955 17529.589254 17551.742961 15026.443059 10460.132710 3789.790684 3230.905917 3912.100001 2502.179134 1305.887334 1564.030131 17812.612247 15877.557038 15271.155668 12569.403545 13216.376138 4838.239977 4693.060402 2792.354029 3925.889197 1961.404402 3956.783886 19142.235129 18132.380725 15534.889528 9510.545385 11612.128527 9255.106891 3812.075847 5057.255152 4044.108031 3077.795745 2379.847867 18117.609022 15855.455497 13833.565357 11935.121368 5933.921711 8556.771647 10651.174509 9453.038338 7604.005387 4213.694030 1924.057865 17690.767995 16414.045183 13401.589850 12054.603956 10693.699567 14734.517478 7902.877033 3928.574457 9021.146090 5216.612553 3174.536425 18145.859872 16625.505941 15584.819087 16485.750787 13881.903612 9503.878163 7508.349106 7421.133940 7117.935668 8741.429710 1428.943749 17952.061968 16923.001390 16585.606621 13454.637984 14605.730067 5490.383664 10617.321180 3472.163847 3947.097834 3281.303662 2768.090559 17555.226818 13093.014566 10515.178244 13705.751644 13030.721050 12173.712246 9614.288194 12495.009150 4922.956528 3735.728440 7846.689093 18384.243095 17939.197145 14498.522255 13653.774029 16546.030693 10396.924597 4980.256437 7269.289968 7611.785751 5999.635679 1655.707490 20177.670069 18167.514084 15570.969220 10547.867510 13859.066436 9896.336398 8934.044197 4288.157898 9459.660098 6167.282730 4062.387730 18212.956403 17816.787661 19366.246105 15616.688273 14101.079240 6164.230087 8653.339283 8970.193851 7382.809870 3161.924879 4604.461140 20445.516345 19756.642278 15357.374875 15809.371200 15336.142715 12490.175951 12573.445441 8050.945227 10862.146399 9740.876401 2023.762056 19827.674075 9265.735882 17728.850683 16192.521532 16997.739143 14651.796705 9081.364878 10170.413915 5095.006683 7027.372977 2382.923533 22516.048931 19489.493843 17598.704195 17607.411953 14281.545001 12486.888235 12343.677877 8995.501212 6159.959390 3301.136720 5200.818474 19335.116095 18535.683131 17981.761799 17599.254188 14978.404441 13408.546274 12150.729729 7441.125832 5041.289143 4617.111954 2722.476286 19964.765792 20515.893605 19349.310825 18590.035998 19286.337560 16234.551648 11875.854277 15198.175986 3772.043847 3954.615042 5727.347284 20989.195485 19974.232545 17076.869493 18078.899628 18874.400100 13632.446778 14034.011180 11527.209275 9433.753449 6827.926500 -8506.541746 20436.955871 21120.727552 19370.017264 20725.647790 18113.505232 11777.244270 14486.445798 12260.260069 14306.819315 4412.436634 5298.188503 23288.007503 22013.999418 18865.293228 14921.746366 16681.572632 10555.494409 9457.839823 5294.338589 9184.111074 4129.052138 1352.609146 23120.797161 18094.311777 20795.121113 16117.824240 9134.882875 13077.691591 6908.034857 6058.298677 4501.679220 9105.791303 43091.507212 23975.529064 23181.766862 23353.444151 19001.794867 18756.225581 11443.448225 9701.398373 6884.432326 10612.762093 754.166362 3995.946064 22597.452808 20577.958898 21225.166858 18871.201898 14594.452940 13840.927093 18544.882387 8485.230830 5083.984227 3822.979971 4682.572124 25401.406149 23172.537443 20296.318000 17209.293126 15578.180264 12113.575873 12447.746126 10023.039246 5905.502005 4547.492234 7137.485955 22727.508354 21074.577332 21569.748619 24440.625420 14579.150816 15295.462708 8769.561150 7685.595433 5383.084667 4339.460145 25346.419452 25039.293852 23107.701712 19960.228658 12786.207049 14947.382810 16571.615829 7173.705913 15079.218358 7395.392563 9275.809842 1641.193553 23462.312041 21358.853651 22503.141629 7463.195394 8804.897865 11028.487655 9070.902641 7974.808968 4485.491896 9709.595717 15863.883152 23303.950969 19721.400959 18023.890250 19503.587417 10308.521746 14135.796227 15582.764168 4627.052791 8336.847727 13785.450379 5227.350586 26787.138429 23575.039797 20693.579677 20133.961093 15114.598547 12833.418933 5012.705192 18020.444573 8167.169466 2820.989204 1581.145592 23642.333997 23334.790131 22577.645568 17260.854982 13030.401951 17584.371968 17717.837273 7990.347367 11289.928851 6178.242672 6242.139725 22177.098191 22974.529938 22254.925567 19209.711051 18367.308611 15998.189594 17313.450850 9884.623019 11567.141399 5337.910042 2221.203038 23136.067494 22275.283433 23409.276493 19575.149223 16841.857409 17323.965171 14225.795458 14396.866737 10034.177140 8700.925896 4330.324474 26475.531578 26747.225781 22062.658124 19132.931639 19469.089985 15303.633098 14175.597621 12513.553309 8925.993344 5477.068754 3671.693759 24741.274814 23144.436764 24633.530982 20591.902381 20814.856935 17336.955510 14914.366470 11332.763195 12967.314778 11483.329389 5244.603552 26644.742650 25876.441535 22519.200937 22508.400740 21003.852278 19372.336173 10784.317583 11578.771166 7342.142447 7830.580994 1935.454690 26530.217677 26136.010279 24380.846898 20651.357838 14303.160734 10067.150487 10039.259021 9952.785388 4170.160291 3853.700745 8863.835329 26039.590172 24303.219588 24038.832035 20038.690449 16226.309032 13229.029267 11924.661117 7500.331440 6165.681310 6811.742676 4510.899393 27305.149594 23608.263445 21549.224324 19139.209221 14428.699726 13324.052621 13870.319119 9193.538195 6984.732465 6224.827116 1700.214225 24784.439361 25415.414034 19140.681563 16295.168776 18019.282648 15155.969905 13118.819525 13871.178865 10757.853404 7531.900796 6071.141729 26796.247742 22667.214798 21228.151152 18972.316148 16848.120059 15233.425551 15601.077182 17586.210849 9134.796976 4004.058778 2443.632844 25360.910236 23243.663533 23041.964894 22542.940932 17570.728339 18394.948901 17980.534896 13334.288049 6851.586900 7158.543368 7081.647271 23346.704249 21526.606955 22341.663251 21796.887947 17473.339701 18474.650960 10952.233874 7087.213934 7181.873957 6177.275947 -6970.310324 27600.774409 23912.807162 22100.071328 20764.477273 20097.249852 17282.558569 11860.468848 8494.438124 11853.589391 4299.406820 3451.847310 26954.250631 26333.653219 21789.236734 20277.664549 18759.562281 14882.337216 18938.195168 9904.595937 5311.860927 3513.579543 6068.917846 26635.671757 25804.225557 24962.281968 19967.722943 20341.059606 18174.481252 13910.840946 13107.267219 3336.058657 5058.193517 5023.077234 25450.961429 24319.757014 25052.869220 20745.642745 18118.809189 20698.917333 16608.012925 11860.649608 11162.967918 4466.292636 -5161.265474 24729.152345 24727.214957 23204.149065 20819.803901 20645.169630 16859.828856 13030.721169 11239.111663 8555.829899 43.158092 1177.497555 27381.412426 25697.207202 23910.680548 21621.199207 16100.453594 19319.066289 16823.322971 8374.654809 6171.483680 4429.203502 2346.630774 25498.702925 23934.237025 23615.599074 22139.283732 18784.088952 14465.727508 10421.174825 13309.156009 7976.248594 3806.913153 8480.766492 23673.847399 27398.321077 23364.865803 21023.081675 19248.543819 11808.464600 14586.994745 9260.512522 11522.516726 5601.410396 9079.291583 27031.057103 24175.271277 23873.116294 23000.760069 21075.414667 14641.246210 14423.114844 8860.548751 6412.373592 5454.913053 3440.952767 26726.399854 25478.511767 24218.015092 23966.334067 18897.409016 17329.383895 6882.014147 13115.899723 9634.124954 3264.508040 10198.094940 25448.914096 19836.425414 23426.513421 25121.818958 21850.989502 18235.189722 14362.282382 10046.078614 6083.304271 4870.432088 7561.180871 26098.417014 25199.629621 28045.124082 21061.117573 16942.303168 18121.800706 14598.437421 8562.815450 10880.868116 -11112.146395 5055.429438 25893.055658 24098.242843 23217.836570 22646.741764 22224.812657 20358.111924 14305.428699 8668.826576 2777.165790 850.306087 2857.540635 28074.072120 27495.648762 26116.161409 20916.388117 20975.301447 17163.686458 11614.944232 10172.331965 3791.639346 1635.168894 -4413.885759 27384.057374 26281.248376 21946.042190 24288.497287 19889.055509 11257.644760 16039.688647 6686.177300 8551.371543 10682.291971 1470.732599 26437.776548 27975.318428 24704.101607 26435.455747 18566.029182 16881.702518 13248.438914 9403.601762 8847.795091 4577.662677 15904.562836 28199.899757 27704.995204 26217.362542 24923.312485 19980.058617 14791.657740 12604.794047 11536.530635 7694.370309 854.799985 6288.772929 28811.727008 26345.981863 26396.029795 24160.103795 23232.143536 20254.940599 18016.190570 7734.592731 9324.905375 12495.976303 12083.619940 30216.352632 28855.260550 24382.810751 25151.141254 19747.310501 15931.979285 12043.496201 9847.265759 6376.284311 8252.281416 10841.756326 29434.210137 26184.674342 27351.764000 21217.678813 22084.927324 15431.312943 10324.413061 9668.095252 8194.291200 -2249.472139 546.929106 28919.962951 30500.116903 26632.893565 25771.595708 21962.666481 15591.925195 15071.302389 11293.785523 8937.054207 7169.383302 5184.355449 28887.978611 27023.487742 27088.788968 24659.245047 24069.176265 19190.593138 13639.680268 11112.780559 8122.085461 6043.860238 -7083.470964 29703.360866 26357.426597 25649.862148 22712.598766 20187.648433 17648.385654 9339.294767 11735.702676 9444.264133 6992.921251 2732.913306 27085.771078 27632.375405 23937.615832 24337.451219 19521.636752 12304.984818 12349.147697 8368.196464 6574.634858 12659.678055 4826.585712 30521.035067 27264.588863 21935.600146 25477.902955 18201.799211 14882.956666 11416.337704 7475.739948 8673.786872 1730.243824 4846.993001 27457.178478 22801.957187 24846.524471 22570.509207 16175.315167 11131.470431 11482.026362 9753.579736 9437.400070 -4627.607643 8036.996657 27907.342545 26742.748917 17347.759681 21671.230326 12845.119480 19614.176091 9234.062767 7432.564862 6566.961106 -132.121737 -14150.254959 32158.663067 24537.277345 25577.103405 17411.129533 18609.401816 17586.320955 12052.079723 11157.424751 8134.137235 9911.881112 5808.704294 29752.297315 29361.015877 22760.064999 18710.246888 12197.338309 15860.816656 9471.478450 7741.313214 9812.140948 6873.340518 1069.746645 26516.744569 30594.620584 23887.775524 22126.740896 21297.516877 17988.768805 5406.477905 10953.137219 12028.797057 9343.620091 6627.448819 29153.819044 28920.726729 19176.062340 28847.957083 15794.639664 18099.615656 8561.269980 10960.309841 6266.277986 17818.141842 3775.420641 29560.724968 23872.988702 26741.004736 25121.802643 23666.599949 12661.794688 10754.882527 11744.786422 6133.185739 16379.400092 8737.860314 30030.146134 27272.454682 24676.888168 22830.607356 21935.815093 15533.872855 14971.813194 13135.605220 12239.482556 7430.276846 -17627.320513 27736.881807 20421.318092 24240.203530 14673.670498 19458.403589 18393.067266 13754.597532 14182.175185 9112.902987 4938.138061 8674.704557 29086.984809 23543.011634 24730.159461 20557.052393 18230.217915 16482.768631 14997.761359 8347.151101 4200.091424 7807.688852 9648.050071 26101.537638 25430.096431 19425.903351 16592.965105 15543.195517 13415.754918 16955.065129 6315.908218 11459.779575 8849.110057 -931.539615 23096.700506 24653.015539 26535.843122 23551.793002 15728.672109 14143.598695 11864.049802 17823.939366 14059.936151 9001.198033 13602.645034 24739.606367 17550.564972 21307.357425 21182.289375 23544.660675 12966.777780 20120.158226 11876.462004 11885.313738 4476.249884 12196.234882 22378.879721 22307.893914 25882.469015 20989.255142 17925.082992 21064.091711 18792.617656 7649.469086 11148.256470 9997.145942 4234.498487 22690.741011 22237.653743 21876.013261 21291.495795 21247.142158 14736.879974 20776.568917 21555.701986 11239.128167 6567.342471 208.461376 14728.710252 17379.304750 17866.228168 15230.616357 10427.966795 14677.355812 13399.422112 14115.805429 16120.768645 11677.388500 9413.821426 9720.538136 4034.620187 -11010.042502 13856.666336 10042.040862 16293.579269 14056.053160 5357.341544 16709.333408 10820.611639 9129.394347 13786.319208 4299.265922 6488.256288 6127.255385 2355.659061 7833.928766 6409.707743 11142.062507 9970.073727 7102.473259 8478.052453 6314.003526 11905.739380 8500.471252 12321.371550 8931.234158 6695.230298 7973.751033 7157.289558 4932.981510 12043.065989 9124.814670 10664.779342 11285.918005 7454.493538 10227.324079 10961.995991 9990.576760 7419.776209 9226.787123 9371.961401 5451.682291 3716.322770 -7.651540 10705.903097 16205.359756 9859.837918 7222.903886 13523.914704 9904.033650 11541.270409 11311.998367 6878.338836 2197.753345 8108.686095 6484.753307 3700.539781 5449.164386 10322.642203 12711.654998 7318.085922 16662.041422 13860.364508 13292.777298 13759.402136 6103.241674 5484.800400 8063.824719 7054.205612 5261.982097 8684.965198 1654.026988 18240.216727 2277.296680 9953.010034 7598.747644 2879.121374 9826.846907 9580.072505 10159.447125 7303.513332 4057.762188 5479.611063 3438.432306 5224.420638 3750.596541 8283.386773 10369.665285 8003.273783 12136.328834 7384.428011 10540.590391 6296.129914 5011.524388 2534.640538 3551.870655 6493.261380 4860.175606 4469.065132 2792.451138 11699.655850 13150.969658 8032.926822 6005.308331 10086.683925 2886.974996 7333.130678 5217.343628 4077.091492 6652.578012 4802.256089 5534.993170 3159.281029 3178.462672 6587.315269 6959.191873 10049.874253 6840.548423 9824.802123 4646.649673 7597.933374 4700.934239 10512.253631 4782.507090 4297.640462 1943.007023 -383.302508 2624.417834 5517.445862 6926.384605 13805.739049 9073.254261 4841.594043 4446.152299 3189.117622 9395.752781 6363.181006 7065.725258 9931.852002 5465.277979 3322.441463 2388.798579 8156.716216 1813.752312 7380.090082 12761.990486 3371.501522 8042.332971 4578.582210 10143.750080 5337.327864 7868.632906 5637.921809 11274.764907 3793.258653 3322.295743 3671.005025 3789.103707 1572.600785 6462.598880 3647.673563 2124.230521 4574.086326 12495.373332 13171.290847 6892.180978 3157.865516 3384.512743 5095.656623 1921.003372 1944.787070 3052.776292 5766.519248 4698.878762 4288.344799 3337.345160 2689.193055 7561.252594 3765.667819 9216.900544 5450.428805 1765.661631 4853.864921 4692.226476 2961.800880 2106.241626 2691.601215 2028.970006 2975.816434 3437.560367 8274.272869 2158.132968 2496.687653 1599.297588 4153.765482 2196.516352 2658.386053 2282.865512
</DataArray>
<DataArray type="Float64" Name="Velocity" NumberOfComponents="3" format="ascii">