<VTKFile type="PolyData">
<PolyData>
<Piece NumberOfPoints="1945" NumberOfVerts="1945" NumberOfLines="0" NumberOfStrips="0" NumberOfPolys="0">
<PointData>
<DataArray type="Float64" Name="Pressure" format="ascii">
 19381.648576 20003.901231 19696.615945 21038.295635 19186.832077 20480.637260 19782.836336 20910.831482 19740.484000 20781.161221 20576.325921 20352.965270 20845.974983 20245.846757 22336.165861 21227.363178 21449.179407 19846.302944 22402.009455 20724.733818 21175.524331 19687.326306 20976.279662 20043.924610 19311.911802 18644.983916 22444.650309 20958.154895 21727.783443 20242.940984 20792.666215 19513.670118 21324.580870 19458.909972 21470.922311 20245.107466 21623.597441 20874.751502 23148.569622 22129.318495 22432.533999 21405.895766 22366.056200 21101.452283 22307.430539 20905.062633 21995.333049 21297.275187 19930.699252 19983.788978 18945.253238 19166.234759 21207.847420 20262.322842 22389.483889 21375.646198 20169.796205 19365.110354 21718.099190 20905.332924 22181.563745 22094.718964 20035.279246 20871.582504 23239.926631 22487.814271 23436.463788 22957.241983 18926.502502 19318.351848 22268.481775 21183.679538 24332.705480 22414.892072 22243.696149 21180.859342 25419.141185 24468.630355 23206.410074 23004.100744 22179.951339 21675.278718 26572.540349 24704.847737 22185.381816 22060.198638 22465.985496 24482.775447 20687.827435 22386.373915 23149.908888 23983.129517 22735.603320 24115.130495 23385.449174 24134.290110 23118.714240 24221.074559 23987.947514 24062.550053 25213.595767 23245.822236 26949.362113 24432.467564 23140.590904 22361.503468 22334.101318 23554.730724 20993.916247 23017.172347 23083.714602 25469.519345 20122.502716 21788.033593 20608.079360 21936.534423 20074.196678 21857.931427 21370.990436 22671.947867 19992.503346 20896.064070 22827.081948 22675.105899 22403.426607 22115.310512 25464.328649 25726.541347 18439.132819 19468.481665 22779.205745 22109.142531 20697.238345 20867.824416 21997.228494 21936.856754 20382.923575 20232.081899 22403.161921 21449.027482 27047.607578 24688.383389 21033.100947 20471.999713 20065.720067 22392.801730 20893.715024 21314.961776 20958.656000 20629.226446 19905.390254 20573.981817 21301.670976 22955.872866 19724.351544 21200.875559 20747.970862 21480.609665 20266.085229 21060.606817 20224.310633 20451.344523 21611.416564 21305.464827 20216.632062 19960.101711 21384.481516 21059.624570 21747.151933 20586.917431 21975.864898 20684.043124 22160.104343 21677.216814 21863.173772 21553.572183 22583.034122 21795.382708 21658.370715 20288.133504 21652.870261 20243.595055 19660.405564 19540.187600 19828.267586 20991.627554 21648.849188 21680.145092 21609.617773 21369.336970 22238.715085 21965.586593 21059.606296 21302.447751 20812.837865 21001.801283 22312.453224 22174.854857 21532.630030 20481.885974 22243.619634 23242.849292 22418.541295 24088.794162 20816.817971 21360.596055 21953.791684 22558.033525 22506.748678 22809.893892 19629.033135 18992.505644 17797.417466 15329.415588 13195.838113 11709.574282 10301.441351 8939.958185 6466.830774 3646.562668 3101.238072 3034.920866 1964.932768 197.823824 -2772.375147 -5377.753595 -5972.998146 -6145.646410 -6324.242707 -6443.446862 -6487.179927 -6463.564250 -6381.990357 -6251.327724 -6079.866298 -5875.339924 -5644.892567 -5395.012452 -5131.466877 -4859.263069 -4582.647245 -4305.141690 -4029.611612 -3758.350229 -3493.170522 -3235.494102 -2986.430470 -2746.842879 -2517.399561 -2298.611020 -2090.855388 -1894.394480 -1709.383373 -1535.876120 -1373.829815 -1223.108939 -1083.492700 -954.696027 -836.466772 -729.124778 -637.085826 21340.838360 20179.539461 19026.631381 16173.762830 14503.104027 13261.114938 11347.910427 10401.293923 8012.199969 3995.158690 4766.980624 5087.350896 2355.341899 375.536880 -2886.847015 -5613.362021 -5990.649355 -6083.640610 -6301.874523 -6426.854853 -6473.267825 -6451.697990 -6371.956269 -6242.999446 -6073.134926 -5870.089586 -5640.991902 -5392.314597 -5129.814900 -4858.498050 -4582.616515 -4305.705482 -4030.647351 -3759.754374 -3494.858335 -3237.397913 -2988.497052 -2749.030476 -2519.674981 -2300.947087 -2093.228901 -1896.784731 -1711.771197 -1538.243375 -1376.159096 -1225.382755 -1085.688087 -956.750392 -838.066307 -728.426007 -622.577701 21204.024039 20076.463610 19771.365941 19484.955094 17775.196043 15748.435921 11903.621750 9333.194233 7978.118585 5682.672108 3108.013302 3128.351165 2552.716371 -1783.769380 -1211.601862 571.553744 824.231847 721.044925 461.216569 157.727208 -135.485139 -398.957087 -630.068857 -831.836030 -1007.220528 -1157.207587 -1280.931316 -1376.594482 -1442.454330 -1477.552957 -1482.117175 -1457.670040 -1406.933766 -1333.602297 -1242.046678 -1136.999849 -1023.253750 -905.391305 -787.567847 -673.350126 -565.615438 -466.508599 -377.450498 -299.188976 -231.881050 -175.194949 -128.420906 -90.580248 -60.518563 -36.929328 -18.079916 21202.890616 19781.699115 19304.657730 18732.349016 16403.842260 13376.924437 10459.883660 8011.233338 6058.329140 4256.279989 2835.687786 2037.940433 1276.070559 338.834499 273.408559 595.862034 777.515640 687.460980 447.580848 156.406917 -131.299832 -393.231996 -624.473986 -826.699354 -1002.301185 -1152.170108 -1275.565573 -1370.870865 -1436.495080 -1471.574307 -1476.371792 -1452.401881 -1402.347845 -1329.847692 -1239.209908 -1135.105828 -1022.272011 -905.245618 -788.147730 -674.522972 -567.238227 -468.438369 -379.552981 -301.345075 -233.991060 -177.180707 -130.226578 -92.174782 -61.917046 -38.345731 -20.843450 -572.110105 -542.314077 -549.066256 -520.906128 -490.262656 -474.716541 -419.208460 -417.385757 -361.256214 -361.519229 -310.836901 -311.399086 -266.623906 -267.186130 -227.924716 -228.440424 -194.177078 -194.641144 -164.864763 -165.279139 -139.506338 -139.874286 -117.654766 -117.979837 -98.898021 -99.183818 -82.859201 -83.109286 -69.196009 -69.413839 -57.599688 -57.788574 -47.793534 -47.956605 -39.531085 -39.671266 -32.594109 -32.714108 -26.790451 -26.892752 -21.951834 -22.038696 -17.931656 -18.005116 -14.602839 -14.664723 -11.855769 -11.907702 -9.596338 -9.639755 -7.744122 -7.780284 -6.230701 -6.260711 -4.998120 -5.022934 -3.997496 -4.017941 -3.187775 -3.204559 -2.534612 -2.548344 -2.009396 -2.020592 -1.588385 -1.597482 -1.251952 -1.259318 -0.983935 -0.989880 -0.771077 -0.775859 -0.602541 -0.606374 -0.469502 -0.472565 -0.364801 -0.367241 -0.282648 -0.284585 -0.218380 -0.219913 -0.168252 -0.169462 -0.129269 -0.130220 -0.099042 -0.099787 -0.075672 -0.076255 -0.057657 -0.058111 -0.043810 -0.044162 -0.033197 -0.033470 -0.025086 -0.025297 -0.018905 -0.019068 -0.014209 -0.014333 -0.010650 -0.010745 -0.007961 -0.008034 -0.005935 -0.005991 -0.004413 -0.004455 -0.003273 -0.003304 -0.002421 -0.002444 -0.001786 -0.001804 -0.001314 -0.001327 -0.000964 -0.000974 -0.000706 -0.000713 -0.000514 -0.000520 -0.000373 -0.000377 -0.000267 -0.000269 -0.000185 -0.000187 -0.000120 -0.000121 -0.000061 -0.000061 0.000000 0.000001 0.000074 0.000077 0.000178 0.000182 0.000333 0.000340 0.000576 0.000588 0.000963 0.000983 0.001583 0.001613 0.002573 0.002621 0.004150 0.004226 0.006649 0.006769 0.010583 0.010770 0.016730 0.017015 0.026246 0.026678 0.040832 0.041476 0.062941 0.063891 0.096051 0.097427 0.144983 0.146944 0.216281 0.219023 0.318593 0.322353 0.463030 0.468073 0.663388 0.669990 0.936110 0.944518 1.299795 1.310167 1.773983 1.786299 2.376929 2.390865 3.121980 3.136744 4.012180 4.026311 5.032745 5.043877 6.141125 6.145736 7.254545 7.247728 8.235158 8.210506 8.873123 8.823248 8.867367 8.788003 7.797437 7.714186 5.044487 5.171611 -0.746369 1.167246 -7.097627 -3.050219 -10.094828 -5.574702 20376.814123 20902.633122 16619.815513 20779.506013 19831.270350 14004.848948 17698.629300 18618.672409 18521.619817 14769.420620 17507.588143 20430.216935 18015.442394 15093.356890 18574.134938 14741.561233 11442.794357 14622.941530 15475.292809 13836.056392 15074.820538 15859.764501 20008.427969 17340.849825 20066.368620 17476.062182 17142.255461 18306.716233 11830.788046 15797.273651 13708.733296 5129.530036 17347.751558 17582.584863 18489.237614 17917.526412 10488.278909 15826.473131 17546.348113 14538.478619 9729.118765 14039.964407 8370.928869 16621.011515 13419.353774 7845.719877 18414.586409 19570.485831 19015.074747 16140.287161 16150.836084 15553.810948 8230.228156 12472.613017 14184.665473 15330.372923 17121.564689 18990.001087 19305.565578 19072.283731 16163.569515 18771.031412 17155.029166 14327.764560 11685.787415 17835.857730 17393.579397 16234.579871 20596.345126 17088.076699 17836.670436 16585.222490 16331.469189 16058.243349 15259.341923 14631.343909 7502.551863 17821.575414 18040.168940 18679.086741 16599.140411 19310.661108 15520.691996 12124.463617 16806.445943 16851.617876 10579.986137 10028.704163 20694.534176 21062.781789 16178.371511 18056.582306 17869.961941 13402.532635 12531.529898 16657.992180 14315.430897 10780.627649 14123.909280 20720.228191 16900.991867 13932.633748 16969.760971 11059.770920 19471.151104 12443.184016 14729.444251 16781.388110 5191.742942 11724.791378 20188.133042 16678.183486 19514.665552 5906.475958 19931.006427 11893.618315 16140.248074 8705.764363 9502.032268 7605.808585 6492.603963 19282.969872 19522.273519 10447.794877 18146.659341 7379.897465 14226.690060 10240.466091 12070.774284 13045.610255 14123.972025 12029.533362 20033.339292 16291.061141 17289.831113 15800.830299 13435.506949 15047.141576 13745.627475 9457.101528 18812.617253 19094.773152 11503.259026 18749.411679 17385.838385 18973.517344 18903.793102 17585.463077 15941.908536 14833.946229 13237.749734 15408.337363 10017.543310 10309.450601 20665.383181 17775.087368 20152.086795 18071.069907 13819.631807 19641.410723 11643.314904 12754.891476 6868.250818 9772.748686 7535.498835 21525.895010 20530.073175 20893.728094 15201.617745 14283.849093 11505.710753 12108.586491 7243.097194 3709.201155 4116.478700 3487.190973 20540.721003 20577.206421 17806.975586 19898.898794 17487.050481 15912.899921 12339.389957 13684.802670 7166.384416 2854.088074 50.187407 21509.926200 17366.943530 18473.703198 12722.799057 11586.727484 6718.315511 4939.885846 5332.372655 5985.000409 4365.983372 3397.185388 20377.809986 19389.776506 18598.496534 18974.086603 14697.633198 6569.796338 11598.572740 6423.487722 7850.932738 3854.697227 3967.487028 21873.042333 20671.600812 19702.568523 17066.852720 9328.330947 8055.314965 8797.511936 5420.029419 4685.082998 1755.888803 1379.293193 20050.063823 18921.912759 19757.887547 16993.992164 9488.629874 5611.899521 5679.596341 4223.669434 4373.901936 1367.539395 3943.072204 20455.941484 19606.868654 15845.355877 12958.650711 12743.905372 5119.658876 6584.307722 4483.072776 4787.420752 2875.518428 1558.401722 21757.618681 19991.208357 19536.230975 11425.550004 12859.492598 11232.731035 3185.928457 5471.895797 4384.807192 5485.929204 2550.658251 19447.444661 19470.464411 16820.990431 12844.084505 6864.181277 8568.038370 12800.777181 9638.218285 8884.397520 3249.742438 1282.651226 20027.108018 17279.394108 17518.552917 13608.932467 10681.988705 12634.207390 8731.928578 4407.327854 9397.832822 3761.399376 3739.077171 23804.512026 19525.585830 17641.314503 19550.368492 15779.596487 11646.321174 8323.138255 7747.707567 8771.613028 7364.191706 1728.934977 20914.334552 18711.070997 16539.885983 12920.746792 18031.504958 6176.645859 12047.573700 4225.404154 4587.955408 3908.127857 2542.850585 19082.486360 13229.374431 12531.659577 14441.781733 11684.512001 13929.178879 9098.090159 10757.040684 4289.446148 4381.247753 7475.580459 19359.269657 19288.422998 15893.258578 15838.482385 16312.611669 9321.365328 5693.401499 6898.198400 5778.145440 6142.772590 2213.011248 19975.389292 20498.578308 15733.585718 11185.707788 10901.059884 7063.371211 8717.060617 5691.818114 6667.167998 6166.882501 4535.283990 19539.338199 16295.457593 22677.632843 15429.366699 15109.547243 7237.234639 8160.807454 8242.276360 5412.965122 4835.536552 2197.410467 22374.340187 20897.027475 15002.380978 15987.989753 15917.138920 12250.153339 11532.259404 7480.386853 7784.534899 7079.986096 3585.010897 22541.437663 9521.548454 17346.117482 14423.599580 18205.657559 11557.442853 6876.913138 10327.214021 3447.878867 4240.725819 3397.179909 22599.300756 22496.193758 20245.752661 16702.343494 13646.937642 9270.705053 10412.804515 7828.544962 4395.100794 3086.154260 5168.675569 23280.497579 19089.019714 15577.105236 15925.966247 15009.062260 12467.094960 11254.304469 4713.929785 3678.928494 4299.138924 4315.561304 23714.284845 23033.130632 19224.714486 18500.583188 17024.119099 14935.994109 10947.678358 12397.298073 3197.897704 3667.140268 3229.178884 23356.550080 22015.848723 14243.959964 15709.308675 20075.519486 10841.547434 12871.365961 10026.944039 8211.896779 5135.396698 3065.295961 17891.265497 21532.502206 21206.291392 17757.503710 16042.854791 8868.620677 12318.964276 9643.888180 15476.997793 4262.238318 5617.722456 23714.191485 22026.460378 20461.259752 13822.544613 17028.583364 9376.523512 6328.023422 4933.738579 6033.526417 4290.642179 1700.330094 21988.413047 17911.801070 21902.980727 13707.124045 5818.742540 9143.834574 5215.733256 5296.023592 2107.124534 7961.103392 2798.908192 23766.820155 22747.202767 22663.714316 17213.932354 17301.957129 10137.644534 7177.579160 6453.695721 8404.968079 1916.366663 3522.333281 20198.493078 20301.522117 18881.228558 13589.858900 12123.939403 10498.679780 13521.627878 6487.991740 5411.103892 2573.608427 4702.481302 23559.913416 22709.602872 18504.026848 14720.740428 13790.690436 9613.697549 10001.844631 9595.156594 7376.900649 4340.274278 5916.882358 21580.057132 20505.395377 18293.262279 20476.697796 13147.087239 10680.559335 7848.436718 8564.461708 6346.102932 5013.833365 3010.477915 22909.463732 22561.136314 18695.319866 10037.899111 14127.539886 13438.314562 8347.301866 13040.579715 6145.055938 6980.738309 2344.901025 22595.682610 21544.821587 23185.115016 6096.288137 7329.870527 8122.759055 8876.575569 7284.725754 5496.324587 7456.151057 9470.817349 23105.344302 17416.188554 14757.181423 18655.553786 9187.684051 13407.345815 13013.111694 5373.078790 5274.259919 11423.042988 4695.030981 23932.373164 23083.934702 17176.129471 18068.878427 13778.151812 12447.348904 6444.819836 15068.622122 8607.798774 2924.515390 2610.370053 22959.599895 23348.531917 19156.870987 15367.483325 10942.624121 15140.118742 15121.460002 6250.144180 10117.416085 3800.776058 3875.206385 20407.025279 19692.338794 19980.904380 14918.318204 16833.221456 12749.846491 15185.153279 8850.179599 11139.109348 4436.334290 3263.775776 20451.410897 17466.755671 19752.797678 18693.291513 12689.016306 13879.568593 11860.402192 12444.387203 9661.560375 6886.592244 2970.923395 23478.094601 23761.221723 17591.714217 15450.970400 16278.233775 13510.726077 12933.884165 11509.412109 7456.314870 3517.958835 2425.807112 23409.015872 23314.684204 21357.475587 18103.606773 16592.497773 14100.070066 10781.605381 9112.301606 10873.421787 8732.608067 3962.100900 21867.520872 23875.568735 19317.498174 21026.479748 17546.121487 15328.246054 9961.865462 10019.915127 4598.766848 5897.344753 2640.918042 24033.552961 24741.992306 21430.335404 18020.511199 12050.024923 7892.192610 6994.220474 9947.106253 5378.278058 3905.811576 8619.083037 23956.217433 22873.261172 21044.268071 19016.718000 13546.005270 12594.388042 8424.456021 5631.995776 4990.135951 4424.755355 4180.010415 22061.384705 22097.724313 20447.545055 14199.846407 11986.579548 10233.079417 11420.314732 7528.875446 5523.138312 5319.582952 3085.763033 23149.606632 22320.262318 17507.766363 11054.023018 16931.174420 12106.291953 11705.324182 10089.730642 9680.285252 5311.990080 3554.403541 22412.201894 19969.634345 19516.573909 18171.868603 14627.090340 13438.196241 13241.069361 16332.661594 6334.809418 3681.319274 4448.648203 22634.958775 20959.308332 20237.213251 20090.572328 16808.792181 15479.282378 12725.186189 11119.230678 6816.634807 5508.666631 6855.197047 21358.872980 18611.787920 18494.499824 19674.733815 14943.314622 14082.526603 9406.651009 5336.728566 5341.864050 5480.034869 682.383953 22518.647046 20306.139241 20454.489546 15398.169064 18199.863792 14340.980838 9634.603305 6036.123810 8840.423493 4180.341231 3935.183833 22582.052803 21636.739956 20174.151559 17690.466845 16038.594154 13694.196621 15241.741044 6387.426765 5064.220837 4692.677933 2611.072231 22681.901433 21245.359068 20039.692593 16012.121165 18506.114229 14316.045365 11390.222285 10229.802541 6686.053985 4650.543066 979.962110 22345.430360 19197.166950 22775.048458 19539.083409 13046.928558 18097.770013 13894.698174 10987.828800 6976.182383 4660.313509 6366.047900 21895.688404 21903.571604 19711.481485 17865.785637 14279.396061 13381.343849 12523.411145 9901.552638 8950.920589 1908.916490 2519.760260 21600.161840 20338.200058 20322.509380 18923.427648 12369.822207 14699.444777 12934.007290 7529.079061 4221.981019 5162.110149 1594.180065 22048.716539 19894.950917 18787.869743 17918.220488 13512.648980 10487.587496 9039.884467 10273.700035 6957.520175 4095.337027 207.478314 20416.703133 21209.729574 17266.007666 14893.194361 15014.022775 9782.531242 12750.836985 8597.680681 10801.955958 5422.691583 320.280624 20640.129325 19155.041970 19762.256512 18185.059930 16784.428927 10888.558003 11907.880556 7118.090691 6252.927314 6036.382105 10255.840111 19838.532181 20039.464382 19006.568082 18336.494020 14662.179387 15596.982155 6320.847029 12497.901416 8795.266573 8330.138941 2891.455187 21183.650771 16423.599398 17770.978911 20105.557534 15731.916030 14231.394536 12560.483029 9010.091265 7169.986545 9243.062339 5392.283754 20396.993804 20866.269139 20873.852688 17443.586284 12484.058746 15514.687050 15140.987322 7562.537510 8768.835036 2407.875587 1096.008246 20138.022357 19550.065532 18150.594093 17367.682640 16957.385873 17554.873891 12277.943675 8313.836977 5387.931475 2554.465148 4429.399205 20719.313409 20272.645944 18888.020302 16506.018648 17268.021480 14201.524298 13385.089664 9108.644497 6692.707553 5289.875985 -824.373671 20795.075368 24216.040693 17450.645821 19387.416543 14952.165744 10278.928543 14338.938167 4042.299956 4389.872889 11930.830707 6728.040180 21907.545603 21868.798354 20889.893656 20194.096873 15864.590855 15860.902528 11161.313466 7011.511233 10220.514946 5159.677022 6795.983350 21067.534835 22050.609938 19400.808166 18095.958286 16564.566775 13986.901248 11052.136193 9789.805560 7036.397021 8083.079063 9819.889132 21150.226822 18727.592247 21246.276295 20457.355557 17121.177691 16535.354967 16116.318207 11442.619397 10431.806259 4283.025485 5588.723170 20801.464326 20472.108053 18711.137979 20057.552006 15544.872926 12399.165534 11626.601969 8490.473804 9125.668431 3344.074060 7294.010836 20330.232353 20863.838153 19249.236092 16506.441136 15448.890019 14364.073837 10066.759627 13442.127566 9999.544638 4271.821752 1220.499099 19546.090051 20752.866578 20076.389110 16033.104036 17902.019446 15781.860018 13531.667648 11713.296645 10034.208338 8249.640361 8220.703630 19395.546537 18607.064519 17470.218477 19120.190823 17874.315417 15583.059906 12596.098123 10016.611643 11886.848724 7771.180623 2116.185974 19565.946810 18376.537630 18059.031050 15857.037814 16502.113569 15754.547679 10631.016900 11409.764330 10057.296710 6729.535448 964.471057 17684.195368 17100.782611 18461.955998 18697.878668 17965.663718 12148.969368 13000.606202 11487.364187 10694.784424 7299.307313 4995.277809 20447.615308 18607.204458 15359.616346 17858.784267 15481.025231 14484.974958 12059.649404 11685.241722 2800.503063 4141.272853 9241.962103 19679.974082 17472.215889 15966.321353 18471.472991 14953.352158 14169.536576 12913.190515 7907.424366 7913.491249 9421.777232 8051.870272 21308.470630 18036.680223 15864.796130 17061.761882 12538.957568 14738.804528 10109.732108 7853.497658 8917.203002 4222.083343 2376.698307 20238.892860 16748.629944 17628.989384 15650.547425 15889.861344 15216.654894 12182.818616 14000.684330 11680.034652 8051.082385 3084.185884 19557.105948 20997.806064 15327.869613 17153.143945 14274.042902 14846.269765 12705.246523 11458.038064 6018.869699 2578.208214 8488.864715 21319.295151 19097.705167 18083.658841 16711.747463 16644.716221 11984.969975 10454.418020 11476.285122 13464.562904 9246.562184 4014.979471 20081.799260 18800.542792 16083.592794 19581.257658 11989.778686 15463.891907 10571.087515 13471.356184 11197.848884 5237.014550 9210.022716 18505.575416 18468.792221 21611.263484 20249.487159 20524.775239 13296.912132 14410.609607 14213.124441 12868.661619 7965.602504 10433.410106 21610.961660 20211.386158 17366.220268 17920.664738 18946.634454 15698.511306 11424.171284 14161.145185 12923.820296 9884.110202 -675.792215 20912.896264 18663.192727 16773.492021 15410.776621 17621.986665 16458.717622 12823.786967 13346.174676 4334.701388 8069.497827 10516.301615 21136.320817 18944.673557 21570.805191 18289.779200 15944.821987 15394.266213 12725.173589 11803.635353 8683.315382 10393.050183 7446.606076 19937.713109 18872.924222 19249.709525 12544.939239 16512.203949 16610.315401 15351.836371 9254.265380 10117.414695 11894.017015 5812.027654 20990.878638 24402.351194 20068.087862 19709.594638 17494.790669 11840.274119 9891.854554 14773.156997 11282.688297 7749.534173 13149.332536 18869.843118 15735.616727 17963.785488 18495.319268 18493.668313 13596.189495 18862.969531 8627.837701 12887.957163 10036.801577 4658.018155 23337.021503 21705.949493 21008.088886 20249.015124 16800.536082 22319.275340 16599.045189 10871.505393 12812.492248 9859.432146 8593.326894 21676.696117 21629.482129 18321.488485 17669.917622 19277.121888 15553.921780 19627.201393 20702.040857 8904.827606 10765.127405 5993.282699 16769.140939 20699.006842 20783.737770 17192.736447 13652.132248 18601.248095 15295.643119 18944.279408 18640.801739 14695.808406 14119.541911 10392.800130 7701.594375 -3994.831834 16477.540223 12974.921820 16330.686767 17307.779882 9088.512670 20981.053757 11889.445690 11425.595427 16720.300633 7350.056539 10092.161742 9337.255384 5008.051963 13183.808023 9860.628647 11621.456632 12133.970902 7489.840304 9831.858798 8071.237020 10791.652475 9629.849745 13198.855529 8301.712717 6195.581576 6283.612948 5695.606355 5085.599267 12142.682445 8479.023649 9897.163409 11238.557428 9902.525976 9602.368623 12506.042116 11228.536734 6906.460835 13730.556729 12008.517269 8182.331273 7680.100624 4482.211586 13391.888867 16088.378839 8812.140845 7850.317484 13588.604046 10164.371335 11031.335298 9565.536053 9679.023601 5717.067797 7949.764730 6467.712309 5177.392797 5276.380303 8879.332816 15355.736192 9243.668382 16622.572506 12057.767504 13018.280335 14754.849221 8562.846728 8074.454681 8159.066943 6707.077663 6475.202230 9421.037020 3579.979593 18476.553762 4063.901781 8753.549843 10066.490087 4596.934963 12295.703516 10528.642458 12302.898020 7027.684935 6173.542498 5593.691396 6048.687328 4390.200845 4939.180142 8113.349312 8306.203439 9175.304117 13644.002419 7716.866615 12016.526583 5728.442454 4435.451300 4005.943610 6526.606890 8691.104983 6014.992414 4591.226520 6320.520387 11232.479191 12020.933843 7984.297994 4013.914433 9184.589437 4661.603370 5918.641759 4774.157313 3935.157693 7107.267671 6166.360677 5866.180530 3815.964410 3712.117849 4948.197569 7493.936769 9860.500560 6725.809970 9610.109300 3662.933364 7740.757419 5928.707560 11289.128836 3112.749997 2314.015399 4378.120171 4533.661324 3268.683778 5803.407734 8925.796329 16119.919943 12681.868691 5030.434165 5850.128470 4116.708209 9941.588157 7747.437840 8081.458604 10036.444334 5881.235618 4142.177241 4932.884075 9486.804543 4451.468588 7810.886890 15732.565371 6108.153802 10214.819009 2832.989750 10452.380221 6118.064842 6635.118812 6643.191058 12704.939137 2493.247398 4684.767440 5049.785709 642.209183 2987.372991 9789.781558 5253.003601 3814.595317 7025.722548 13267.847424 16109.659842 7209.948106 4758.036243 4760.435701 2958.843012 2910.747426 2848.177872 6008.936541 4785.000161 4505.779330 7181.612602 4425.589120 4899.647101 8239.502800 5026.715971 9687.194794 6702.201467 2207.480370 4726.543984 3860.087541 2461.239099 2839.954144 1836.038163 4869.024986 1379.698239 2787.933477 6492.398643 2342.570323 3752.980005 2508.414867 4497.275105 3441.797268 3237.052916 4754.763465
</DataArray>
<DataArray type="Float64" Name="Velocity" NumberOfComponents="3" format="ascii">