<VTKFile type="PolyData">
<PolyData>
<Piece NumberOfPoints="1945" NumberOfVerts="1945" NumberOfLines="0" NumberOfStrips="0" NumberOfPolys="0">
<PointData>
<DataArray type="Float64" Name="Pressure" format="ascii">
 19458.050495 18409.939500 19177.133071 18207.841117 18346.967132 17662.306587 20577.273703 18687.583940 20989.537418 19088.741195 19207.186208 17813.812765 18990.925751 18543.289410 19119.007423 18456.376854 18933.238199 18572.864898 17609.340242 17481.620963 19256.089015 18619.644272 19754.585763 19130.233817 18404.387387 18194.904955 19568.394501 18956.355762 19717.923034 19174.447936 19699.601496 19170.577538 20800.003929 19811.527752 21078.629401 19796.201062 20025.661302 19422.827265 19197.768702 18983.322561 19319.254393 18868.865897 20068.585743 19063.915485 18431.548958 18141.889747 18757.243151 18745.371289 19410.126434 19679.243320 17004.884825 17625.815602 16410.461620 17146.058067 18436.889992 18427.263121 19414.619176 19408.675462 17724.070332 17602.215123 17834.708803 18154.379896 18491.672794 18648.891492 18751.478876 18635.214658 17512.821915 17426.401149 18024.562905 17896.073345 18149.925445 18136.027461 18116.354920 18248.649665 18027.052675 18241.509406 17971.512770 16981.725975 19794.917034 18884.941825 18410.729249 17489.027221 17144.256763 16510.567032 16874.374190 16265.510764 17997.779933 16442.007245 21021.483096 19123.428350 17302.253778 16821.764487 19442.969524 19347.319643 17892.821263 17228.992835 20078.439207 18354.523076 19143.908236 18208.364818 15922.103875 15621.339593 18569.571764 17749.866952 19355.204361 17262.844579 22703.419584 20809.933330 17008.272401 17390.898625 18239.068528 18188.399521 20058.961057 19252.594734 20237.685062 19077.123189 20916.850233 19574.184600 22343.464176 21669.495922 22823.340613 21919.857452 24711.403827 24126.170883 18277.884952 19717.329773 23121.010953 22017.155114 28874.497733 27308.752321 22330.774677 23154.693926 23261.737812 24794.558775 24840.116034 25364.261374 24593.765911 24865.519970 27380.926412 25550.691399 33434.374114 30130.915391 28958.328190 26827.880715 29782.461531 27871.351577 27729.120576 26481.110606 30602.666813 27759.530253 26620.108890 24654.134183 27099.779721 25529.525439 25336.524725 24622.729826 26223.011208 24718.968531 25521.188382 24765.658914 26902.971359 25433.097296 28555.381023 26893.192610 25800.927287 25591.031710 28682.122539 29031.951662 25447.153348 27199.801523 29314.652489 31212.197892 26559.604638 29170.098920 27011.776450 29654.155592 24861.115844 27966.323095 25795.431074 28574.936004 30323.913017 32265.288713 27469.404712 29471.396149 27063.797620 29305.485701 27294.334567 30485.187223 24891.537113 28081.488417 28292.506459 30999.098304 28867.160281 31052.112084 27084.546228 28721.908079 25413.527521 27257.781612 24194.321410 25399.020992 24022.529557 23886.196057 24169.447028 24028.322486 22780.311441 23296.830094 23083.270003 22637.365256 24348.016936 24039.770242 16348.572322 15945.299231 14613.520827 12754.940837 11542.945651 9832.223980 7171.034808 5998.602927 6015.976063 3588.631814 -156.900552 -2294.260849 -2799.723470 -2711.530401 -3193.585528 -6145.026627 -8662.976994 -8661.774003 -8481.116527 -8274.098986 -7975.366686 -7616.523008 -7230.822382 -6839.722232 -6455.675088 -6084.834299 -5729.272414 -5388.654041 -5061.423201 -4745.611160 -4439.361413 -4141.241685 -3850.392637 -3566.553106 -3289.997874 -3021.421184 -2761.795153 -2512.226363 -2273.827110 -2047.611100 -1834.417625 -1634.863970 -1449.322937 -1277.920926 -1120.551550 -976.900165 -846.476487 -728.660176 -622.808215 -528.725256 -449.594443 16774.117824 16379.237639 13897.174717 11594.693375 11092.160477 10061.915170 6422.877241 5484.523864 7226.880380 4482.693514 -288.613768 -2412.227477 -2652.220536 -2537.310442 -2648.075619 -5281.508576 -8237.593768 -8565.361570 -8374.649792 -8237.747273 -7958.668755 -7609.422578 -7229.090887 -6841.022232 -6458.517933 -6088.270256 -5732.732747 -5391.837620 -5064.210910 -4748.002544 -4441.427673 -4143.090304 -3852.140910 -3568.309303 -3291.849246 -3023.427973 -2763.989449 -2514.614475 -2276.394106 -2050.326322 -1837.240286 -1637.748196 -1452.221937 -1280.790145 -1123.350742 -979.593998 -849.030591 -731.012988 -624.696405 -528.625350 -438.023386 22285.942790 22957.893273 23488.292881 24473.194655 24655.266328 24254.031017 23124.075037 24835.605055 26079.155145 23691.951826 19807.327343 13719.393706 8347.270853 2885.205281 63.565005 3848.139413 3104.651828 2011.387870 1323.076048 812.219489 327.216918 -181.247856 -703.967950 -1209.748653 -1665.341568 -2043.964569 -2327.798947 -2507.884029 -2583.152491 -2559.294347 -2447.589255 -2263.641016 -2025.941821 -1754.277360 -1468.081367 -1184.913249 -919.243776 -681.691158 -478.769474 -313.119379 -184.113731 -88.686476 -22.227109 20.591210 45.137897 56.345923 58.427550 54.756756 47.872375 39.528249 30.565025 23776.087247 23666.379577 23236.746085 22367.494095 20806.973791 19267.277200 18099.192820 18166.538322 18427.122836 17852.221283 16650.947318 15749.837268 14227.752452 10169.909590 7343.199274 5243.903000 3305.996049 2117.982042 1371.774188 825.327359 325.367106 -184.699503 -702.837912 -1202.390923 -1652.369299 -2026.877415 -2308.304403 -2487.614243 -2563.561311 -2541.612794 -2432.787189 -2252.385806 -2018.565669 -1750.769410 -1468.115149 -1187.910002 -924.462450 -688.329502 -486.059043 -320.400300 -190.881065 -94.606788 -27.129560 16.741539 42.275792 54.343347 57.127311 54.001514 47.540341 39.648254 31.967362 -394.615631 -369.547616 -376.311849 -352.868929 -329.334343 -316.641401 -273.674186 -272.272762 -229.683893 -229.967829 -192.488535 -192.994561 -160.774345 -161.260525 -133.785559 -134.217326 -110.908708 -111.285169 -91.599982 -91.925684 -75.372391 -75.652584 -61.791735 -62.031533 -50.473461 -50.677671 -41.079305 -41.252366 -33.313661 -33.459632 -26.919823 -27.042375 -21.676206 -21.778630 -17.392646 -17.477866 -13.906853 -13.977449 -11.081075 -11.139304 -8.798998 -8.846823 -6.962913 -7.002029 -5.491144 -5.523005 -4.315748 -4.341594 -3.380475 -3.401356 -2.638970 -2.655773 -2.053206 -2.066675 -1.592129 -1.602883 -1.230488 -1.239041 -0.947842 -0.954619 -0.727711 -0.733061 -0.556869 -0.561075 -0.424739 -0.428034 -0.322903 -0.325475 -0.244686 -0.246686 -0.184814 -0.186364 -0.139142 -0.140339 -0.104420 -0.105340 -0.078111 -0.078817 -0.058244 -0.058783 -0.043292 -0.043702 -0.032077 -0.032388 -0.023692 -0.023926 -0.017443 -0.017620 -0.012803 -0.012935 -0.009367 -0.009466 -0.006832 -0.006906 -0.004968 -0.005023 -0.003601 -0.003642 -0.002602 -0.002632 -0.001875 -0.001897 -0.001346 -0.001363 -0.000964 -0.000976 -0.000688 -0.000697 -0.000490 -0.000496 -0.000348 -0.000352 -0.000246 -0.000249 -0.000174 -0.000176 -0.000122 -0.000124 -0.000086 -0.000087 -0.000060 -0.000061 -0.000042 -0.000043 -0.000030 -0.000030 -0.000022 -0.000022 -0.000016 -0.000016 -0.000013 -0.000013 -0.000011 -0.000011 -0.000010 -0.000010 -0.000010 -0.000011 -0.000011 -0.000012 -0.000013 -0.000013 -0.000014 -0.000014 -0.000013 -0.000013 -0.000010 -0.000009 0.000000 0.000001 0.000022 0.000023 0.000063 0.000066 0.000138 0.000143 0.000268 0.000275 0.000487 0.000498 0.000846 0.000865 0.001431 0.001460 0.002370 0.002417 0.003875 0.003949 0.006282 0.006401 0.010143 0.010336 0.016367 0.016682 0.026457 0.026974 0.042897 0.043747 0.069779 0.071177 0.113769 0.116051 0.185557 0.189245 0.301966 0.307840 0.488844 0.498030 0.784826 0.798881 1.245841 1.266806 1.949928 1.980298 3.001381 3.043857 4.532620 4.589203 6.701959 6.770159 9.689023 9.742069 13.712735 13.591206 19.300114 17.990669 24.247810 21.809775 26.350595 23.780626 17172.527006 19084.631797 14711.691570 17838.466624 16838.266462 10881.676480 14887.101519 15896.877622 13790.502834 11696.493966 16803.292175 17012.481252 16294.836467 11673.417580 17313.685347 12532.226801 8159.128791 11922.118112 11345.887003 10827.257820 13946.982739 11386.296657 18092.582495 16878.900604 18347.048895 17153.826113 15143.593389 17364.711954 8004.336261 14351.387844 11640.874163 3414.595306 17146.740228 16985.309616 17804.818793 17482.653274 10224.644921 14624.022810 16682.472349 11789.771645 6911.059277 15284.529886 6803.322457 15432.550497 11925.189121 7564.502713 16996.465116 18879.349485 16677.450155 15553.792677 14124.251498 14258.283896 7228.563763 12697.342847 12610.452761 14814.851724 16993.914898 17036.713188 18522.911673 17274.704870 14210.335100 16811.803622 15358.873424 12194.035146 10883.628347 16827.075112 15212.392463 15959.386485 18731.770367 17751.443496 17044.543339 13795.760308 14814.794363 15364.358872 12986.950217 13911.079714 7271.117402 17293.876010 17111.602494 17137.717591 16080.811427 19559.483431 13497.558009 12351.482494 14613.914696 14962.347935 10049.224434 9672.183718 18817.957258 18859.606876 15976.773388 17610.480551 18055.263218 14432.281348 11432.000444 16123.736774 12461.911449 10576.553535 14241.780499 18243.062326 15897.830137 12969.550693 15997.794617 10329.408646 16745.769697 12071.485259 12513.631555 15091.220641 4361.666661 12097.938986 17602.574869 15270.610964 17160.718550 6207.072648 17255.528225 9807.010909 15666.534167 6898.924686 8472.306101 6787.809920 4819.493358 18050.012918 17484.538539 10589.419679 17045.151744 6882.478855 13283.469702 9102.335834 11005.645163 12675.040026 11885.711390 9456.337409 17863.076960 15658.768338 15740.666528 13889.606231 12641.189491 13903.256726 13885.979459 9732.784147 14898.239959 14218.478452 9258.900427 16466.538889 15822.340047 16793.076943 16697.245914 15096.203564 13375.315910 13421.543931 11480.148444 13539.337354 6974.943087 7659.092730 17847.597110 16148.248640 18062.273906 15855.897320 12405.463668 16441.187240 11156.074807 10262.490683 4428.942140 6754.331831 6714.410986 17646.267904 16364.883758 16486.779350 13625.444163 10744.148754 9463.653739 8752.689584 6236.069244 4268.056482 3141.461084 3273.517470 16548.668292 16303.949568 14366.387034 16346.973706 14107.731700 15223.890565 10108.256390 12042.882006 6240.168356 1643.526289 1917.972195 17794.818951 14502.084159 15810.483270 11093.104561 9250.850936 4687.334578 3683.358583 3703.274280 2254.189172 2294.711967 2225.166838 16247.078749 14833.639642 13625.685839 14133.068529 11447.246220 5258.487441 7094.206886 5956.456380 5238.301400 3230.923056 2376.349094 17872.818278 16124.531210 16504.245312 11449.845140 6752.701569 6507.634902 7172.602974 3308.332490 1871.710472 2657.682061 2027.326085 17165.066753 15905.790217 15911.429509 13497.829211 8833.126899 3857.924364 3389.567233 2565.760478 2186.369644 2341.008751 1990.678273 16308.518484 13734.418751 13688.272242 11428.572498 10497.237373 4018.135173 4822.024460 3336.657243 3510.660423 1474.517955 3143.062816 18051.412555 15688.564791 14419.072315 8513.365147 10467.893253 7653.734279 2956.138349 4522.150297 2526.260153 3139.267077 823.250240 15669.234137 13263.118293 11940.808593 11020.232669 4718.881217 8191.707565 8446.648633 7988.784055 5296.295212 2812.710907 1338.123326 15289.665733 14223.192014 11563.994026 10284.722870 9123.926463 11005.538104 7154.126454 2422.168588 6729.584662 3336.471203 3174.679439 16206.173798 13688.456532 13074.204304 14348.060599 11773.048277 7988.123188 5676.031314 5200.764871 5595.056782 5942.516064 1100.970283 15373.510845 13834.373615 13929.067066 9985.640860 12508.848321 5574.177825 8244.746814 2877.193693 4180.685285 2090.157525 2430.274118 15535.958701 10454.775501 8312.078282 11063.287417 10977.207975 11157.901759 7582.568672 9355.523431 2787.028009 2606.853651 7035.747868 15853.569302 15321.351541 12880.447201 11023.741766 12731.803288 8513.893877 3206.187772 4935.800318 5121.240793 4358.005439 1851.428092 16247.279014 14767.979005 13263.923659 7881.676415 10033.923082 7666.180321 6859.018940 3677.330368 6776.245330 4787.259953 2670.731166 15393.277310 14400.168989 16914.487302 12070.857057 10791.622547 4612.648031 6625.250598 6360.964033 4713.286613 2954.052754 2197.999099 17779.489746 16718.806874 11621.710079 12026.088694 12407.716736 9624.968724 9200.515643 6066.794146 7972.720588 6551.951104 3056.141254 16815.343831 7503.904992 13898.870240 12179.756322 13023.974722 11583.280525 5833.554554 7620.876819 3326.024317 4886.694166 2977.732093 18277.137295 16048.618076 13788.976129 14124.154719 11767.003139 8289.658081 9265.534426 6404.118553 3803.407686 2831.883920 4628.333589 14871.428154 14522.019685 13938.749488 12923.659365 11569.649947 9776.529168 8543.441614 4938.128789 3700.349815 4548.884990 1220.370650 17328.882307 15547.299826 14630.670412 13612.786553 13250.458958 11219.591066 8398.714220 11318.730578 3082.028063 3204.678742 3593.126069 16013.312506 15367.419748 12021.586553 12866.506366 14683.059783 9440.178102 10268.357141 8153.549300 6753.621348 4937.654404 -7389.822785 15225.124412 16175.498390 14332.596396 15573.616559 13758.287869 8394.184493 9531.296327 9312.982024 10390.473888 3911.693728 4811.318276 17159.653296 16424.824623 15075.580100 11241.817467 12740.931161 7867.800188 7044.542613 3777.643004 6185.553155 2521.928422 2005.651603 16902.227363 13991.374621 16199.845624 11494.838001 6130.418868 9591.931065 4925.006582 4468.220758 3098.253882 7660.864412 18397.055246 18617.766999 17378.107916 17214.654354 13309.347027 13652.496610 8389.354311 6265.105709 5308.196689 7998.561322 734.053585 3126.751184 16828.324568 16211.908566 16044.264003 13922.644864 10515.374344 10620.530939 13841.927074 5954.150624 4872.481243 2360.919949 2959.816410 18196.097934 17585.609016 15424.453925 13704.663794 12106.594251 9875.832147 9435.993082 7292.154972 6043.942801 4519.192255 5327.863942 17017.585302 15459.579858 15525.940371 18168.695702 11881.173298 11315.611275 7826.031206 5974.906767 4959.138678 4116.133805 11087.090003 19411.688179 17754.497706 15611.499628 9127.418939 13444.133305 12115.119477 5786.022868 12328.567245 4691.085050 7751.317480 2547.149807 18431.916976 16407.407763 16440.081671 5504.334363 6671.351283 9018.937391 7571.623741 6386.576340 2728.983426 7304.053408 -10053.774895 19995.165771 14324.314023 15045.796654 16278.652096 8658.417669 12212.819540 12163.775397 4059.088145 5847.413687 12212.667845 2750.134336 21381.818320 19436.910967 16003.216761 16778.407138 11933.971066 9734.534400 4239.403585 16239.770387 6732.390071 1628.897193 1722.694761 19525.779939 19734.487647 17960.844310 13652.048652 11010.855544 14954.280894 16023.209910 5678.816414 8839.556152 3818.409175 3649.671620 18158.524011 18722.795578 17895.752588 15404.046583 16456.009757 14257.410789 15103.656523 8350.630321 9388.140567 3664.420792 1636.711775 20053.981425 16987.310773 20514.437174 18534.654582 14301.488045 15115.357542 11317.220303 12901.298272 8427.304237 6875.156546 4264.486184 22134.304470 21486.678799 18584.047257 15682.443733 16482.863156 12652.707203 12079.785995 10364.703078 6400.930108 5028.683305 2558.040968 21208.251128 20315.089310 20205.866590 18964.569944 17730.694086 14894.256443 10472.949735 9460.126891 11191.213197 9550.973596 4715.440309 21756.986225 21317.485086 19385.499681 20841.385703 18638.185476 15183.984129 8835.390121 8873.860748 5412.882167 7066.172843 2089.331659 23967.347228 21435.442075 20253.904971 18737.141577 11595.485566 7455.486867 7550.308919 8669.856779 3177.013006 622.563355 28919.779211 21945.418021 23165.953895 20875.969181 17736.302403 14514.620505 12218.694461 10634.823689 5476.904066 4709.111052 4818.125978 3625.399028 25130.373740 22907.058305 19593.544186 18262.370131 12294.013019 10465.859832 11500.038867 7818.890854 5023.152628 4657.928835 14018.451948 23432.184882 24827.578863 15524.035872 13573.876063 15633.749160 13608.255528 14564.843713 11741.728335 9988.328398 5822.152522 4232.357026 24126.921689 21016.451991 18907.566103 18377.708929 14557.716077 13834.936698 15492.604462 16315.792725 9221.167261 4363.696863 3646.917434 23862.007728 22692.212307 22869.968179 19594.557404 17800.492599 16954.923834 15795.430527 11868.088514 6733.010674 7006.467219 7343.244172 23087.705094 21486.268095 19168.684602 21946.446302 16414.211715 16883.089434 9439.852181 5008.119985 6325.242136 6312.683708 19205.046848 25949.159613 22381.696892 18822.300151 17514.394631 18636.797376 16364.556326 11477.838405 6054.022266 11913.037609 5596.201471 3807.139954 23806.003220 23797.228966 21391.179979 19373.387461 18915.916234 15232.588242 17766.236503 8995.279357 6294.605671 4105.356204 3784.370172 27662.666284 23163.379677 23253.709815 19523.219868 18456.022623 16887.506366 12401.808288 13088.466645 5496.260431 4062.675559 5361.421239 25730.315369 22504.274051 23793.887643 21230.711595 16824.265851 20683.109995 15035.335360 12562.761427 9127.478398 4326.082011 24994.841924 25231.719573 26101.417289 22570.449327 21157.276809 17895.720647 17338.639277 13847.377262 13364.208224 10062.949896 6038.049903 6384.814118 27735.942533 26595.732281 22125.382184 22150.103808 17111.067602 17813.622478 14401.258817 9053.922082 4864.281633 5375.788824 26213.118915 26470.954927 22208.332755 22137.644568 22041.599423 17499.785834 14312.999348 8879.814987 13681.625498 8769.160390 4819.317120 6754.525228 22787.266509 25040.702088 22372.840982 20206.898535 19068.049212 13145.320866 16625.222855 9903.853983 11092.354795 6314.778383 15912.535234 26150.888485 23948.237121 23167.043122 20959.926675 19097.947019 16057.749463 16714.254061 11074.363407 6644.255879 8852.723998 16653.902733 24248.921176 23699.289564 22353.256843 22202.727983 19124.550855 19208.882944 8333.625548 14010.774936 10182.048008 7416.823879 9916.452619 25065.265315 21566.619539 22695.469841 24512.373632 20697.202275 18959.664137 17044.552865 10664.342353 7606.659757 13344.564956 5148.307111 25976.707338 23293.581022 25308.173283 20390.307169 17881.867025 19911.351968 17730.316134 8399.655166 11325.236865 7352.734263 7590.919170 25822.876550 22773.929558 21407.547353 22800.149247 20796.471753 20520.983786 15541.400750 8435.841353 6595.474290 8918.489269 18660.605409 25155.291560 23263.810887 24187.783793 20404.175205 21642.234469 18153.728285 15615.787049 11853.248563 13530.432185 13164.175049 15168.724774 25873.896176 23259.948295 23299.998505 23278.756491 20290.558391 12896.193051 17529.256650 8791.591520 8955.321474 17320.750712 21889.366779 26177.147440 25357.253156 24744.057722 25695.990973 20059.461034 17157.525531 14807.479022 11315.638911 11533.088943 16286.586034 6570.706219 27009.050935 26170.462654 25135.005769 24990.723285 21798.295539 17387.483412 13861.019896 14236.400156 17612.450542 8599.453308 23328.733350 27813.595697 25510.322243 24797.298546 23208.804846 21531.804520 19987.790864 18399.436331 16467.801742 14415.763682 22285.808353 20151.622476 29965.722680 26313.420254 24360.320024 24385.415290 19572.929729 16680.867147 15403.354807 11477.552842 18242.865449 19144.067129 14366.235736 29758.043143 25898.086113 26916.971829 21127.894993 21919.104059 16460.653432 12874.035209 17344.697754 21895.354205 26774.443562 19951.194939 30362.090313 30089.249596 25776.463703 23814.787895 20857.831144 19924.384228 17163.767813 15988.327481 14364.549270 19071.500236 31814.802128 28920.076028 27533.659293 24418.651506 22183.421713 23458.198899 20223.941725 18950.961726 20871.433569 20773.915601 14335.618482 19329.989382 30885.514549 25883.190825 23919.105294 21171.885784 20622.933316 18762.351734 20976.302114 19677.150028 21050.818937 21844.893634 30826.806565 27058.582792 24518.976197 25187.088868 23393.357048 20871.805543 18911.939584 18065.455255 21270.837869 20136.578495 13568.668736 -11052.522041 28893.356274 27074.751653 20365.368050 24052.129839 20533.363304 18857.565088 18280.835108 20850.377237 13330.586897 27689.912952 23382.172911 28790.183844 22608.399460 24420.091461 21493.838780 18700.445256 20608.553347 19015.909219 19288.012659 16028.911944 30243.956161 15127.375373 30264.842978 24799.541196 21592.176454 22321.898983 20550.956480 22646.376400 21988.598311 19917.463977 21329.018149 14400.583448 15990.380880 29577.177659 25897.800384 25753.337982 22078.776014 19681.772847 21090.414947 20517.745379 20999.011724 21460.553214 16070.822739 5515.850620 25768.826883 26726.383308 25191.373169 22958.788496 20930.883048 20357.829483 22202.753795 21111.349744 13631.507755 17766.553529 12033.205858 30193.275190 30551.125627 25796.626236 23992.045489 22857.153033 20425.521072 22566.400636 19976.232800 20863.601862 21767.272271 2222.959082 29485.861213 30058.882971 22468.648829 28245.936464 19996.619375 21763.549803 22386.217617 20793.024253 22831.594773 14599.650893 30342.137315 27979.392892 25794.401188 28960.416951 25589.776609 24780.959310 21093.900941 20842.563666 20704.492162 22636.178530 16436.634388 26689.737906 31329.807482 28346.686474 26674.757936 24713.287012 22456.534880 21732.388923 22382.590078 21339.376483 22371.276456 24359.673665 -4697.590424 27779.564140 25854.622863 24960.226612 21321.844937 24337.482512 23059.232221 20798.620689 22711.028101 24725.840897 23066.869662 28056.827486 28821.417287 25698.687747 27190.766942 24008.174456 25139.245137 22826.907830 27692.273939 22507.539312 29806.177431 27810.440976 27423.806293 28066.395424 27046.597949 26039.591498 22949.942052 25406.081969 24875.188122 21463.133423 24381.435229 23863.314845 25482.818128 11857.817599 25869.438153 23691.213084 29382.256538 25501.102465 24895.797532 24593.376121 23067.170532 25443.861170 25190.015321 22354.237985 24900.711434 24221.596154 24204.403100 25246.738237 25512.420491 25984.840768 23416.207619 24621.832380 21866.336455 29681.270180 27673.854078 22804.847489 23867.804095 23065.956344 26465.341822 22465.346217 26695.037708 23764.800861 25668.492760 27738.179773 21311.962702 24228.975514 32728.365046 24552.182258 24549.584887 24136.662393 23355.165154 24608.029258 28806.021955 24462.896411 23925.035967 21642.414710 22293.108305 31124.687001 12522.913056 16697.263377 16577.249397 13723.643336 10450.849138 14298.199911 11381.635730 13036.456753 15415.983991 11082.358503 10188.094436 7812.107140 4480.732325 -8829.671136 14155.499464 10870.898302 14219.003745 13802.034757 5254.907536 17569.427516 9244.686249 7484.524630 13289.039647 4326.119126 5812.569015 6761.406558 5751.241616 7388.924915 5378.974257 10636.754638 9515.203096 5084.488678 8728.148513 4109.213989 9934.650300 8226.999607 10970.613563 6562.907885 3807.048835 5679.090293 5560.587350 2498.194479 11283.406549 8803.730117 9518.453680 11288.276665 7717.001559 8895.392162 10833.187041 9816.253841 4790.676830 10185.195822 7931.878163 6491.704643 3134.829706 292.802840 12471.207476 15386.495343 8778.845768 7189.197235 13476.110370 9311.787933 10465.363235 10049.409718 5543.305060 3704.395420 7004.331496 4653.049895 3629.542779 4231.372553 9653.667387 14198.914991 7510.685853 15292.157184 12824.484160 12131.618540 13067.870428 4936.210373 5464.981137 6247.887617 6322.208903 3848.020419 7810.357582 2357.884159 17007.266846 4282.742852 9448.735514 7612.301003 4129.703407 8966.455667 8730.320787 10119.806444 6890.781223 4930.728810 5497.939559 3847.438143 3904.160380 2716.479482 7879.164992 8921.804868 9117.497363 12882.907013 7454.796845 10857.938228 6329.988366 4752.771331 2782.089589 4348.530370 6016.699502 5472.091520 4343.672116 2956.130156 10904.980350 12189.378125 7366.401781 4839.059633 8055.441898 4228.543448 7108.098944 3738.819361 4414.336586 6733.676900 5029.041013 5279.346053 1604.627862 3583.023871 5944.569159 5511.654039 9331.642188 6918.392391 8941.166893 5582.867970 7635.823688 5426.325198 10150.607973 5053.985064 3506.538199 3467.013353 1259.945579 1223.720953 4468.727637 6922.206777 13375.801520 8620.550047 4746.077784 4979.816999 3603.249956 9536.492110 6704.578123 6660.258471 9365.291453 4736.384264 2118.785974 2316.986511 7834.968518 1375.634217 5413.899364 12264.805264 3999.904510 8698.946553 3488.872702 9583.483120 4222.176482 7285.065258 6102.032217 11481.176471 3238.793165 2749.453838 4581.455720 3302.853508 1876.428988 5946.512192 2457.368118 3417.873490 4237.932586 12286.749490 11598.898901 6623.633706 4429.572293 4260.550266 3304.018817 1976.483408 2864.672139 4369.523094 3431.147495 3623.743548 4041.628964 1887.028089 4034.427781 6845.298081 3767.210450 8668.121483 4324.975186 4222.379696 4242.787302 3252.875956 2116.001262 1753.080853 2243.773661 1623.221536 2710.934931 2155.009151 5654.621045 2237.697498 1749.518257 1758.604006 2996.309617 4097.475979 2671.346919 3061.672076
</DataArray>
<DataArray type="Float64" Name="Velocity" NumberOfComponents="3" format="ascii">