<VTKFile type="PolyData">
<PolyData>
<Piece NumberOfPoints="1945" NumberOfVerts="1945" NumberOfLines="0" NumberOfStrips="0" NumberOfPolys="0">
<PointData>
<DataArray type="Float64" Name="Pressure" format="ascii">
 18699.645917 17293.595881 17620.308371 16507.292758 18318.160045 17714.720637 18207.683572 17704.965617 18191.266349 18395.533409 17838.911604 17574.810877 19247.818406 17926.042221 20016.879922 19742.593874 19925.072421 19399.312486 20580.561499 19191.615096 20533.702240 19649.588106 21346.205492 20350.727363 22720.156421 21634.989196 21139.452600 21281.760104 20307.600556 20562.334162 20872.689386 20731.636371 19941.746579 19266.022514 19260.086391 18647.421014 19502.233446 19133.983268 19959.699987 19314.779316 20327.002018 19570.482891 21465.465292 20087.922506 21804.044676 19317.328678 20752.390668 19302.405929 19641.899712 18140.296236 21203.454390 18646.883506 23301.560854 21050.696353 20586.322550 18165.513491 18496.389565 17673.631611 18804.203542 19189.248316 17530.416482 17340.173664 19189.339563 19276.124954 17275.337311 16620.355670 18776.107381 18342.735490 17864.307151 16305.149370 19501.294021 19506.895252 17703.528464 18050.731593 18101.454946 17085.965148 19883.489275 18541.403339 19201.137980 17840.707755 19518.351249 17921.776391 19936.980591 18792.817251 17804.236949 16723.397619 18429.438871 17427.577696 20286.393429 18633.763930 21044.697552 18254.435181 25121.288755 21895.112876 21748.141834 20524.951760 20939.136022 20702.865907 21663.144365 20535.853396 22764.505914 23323.051097 18755.331193 18811.281953 22823.163038 21725.181737 26440.225377 25912.741634 22677.031143 21527.745158 26292.842165 24555.708103 25854.302387 23598.849641 25159.915430 24408.177709 25333.412945 25080.392631 24158.594969 24613.373731 22831.805030 23145.282242 26348.887519 25287.652065 26996.254476 24813.878313 30312.512375 28380.850103 28159.115847 26477.776557 30873.519142 30337.670115 28858.847800 27320.109303 30305.000912 29546.048731 26698.882362 25677.983531 26428.689703 25546.962638 28722.854264 27593.567079 26856.296904 25617.806917 26861.152715 25979.946816 30885.263324 29916.105559 30471.553305 30542.670046 27802.705312 27421.436447 32866.070739 31049.384584 32397.423079 30749.570411 29550.661884 29040.928509 32628.225581 31087.812367 36158.392272 33208.772981 30880.976505 29739.751865 34349.541130 32668.774690 35889.322389 34732.832034 30814.054545 30054.303134 33442.840698 32538.558728 36867.326492 34738.965754 36971.022429 35649.073259 33362.612212 33212.545187 32135.285939 33560.513883 29448.495072 33508.984278 27274.655000 29239.202936 31955.195904 34008.355889 31745.948508 33925.700030 35428.539193 37364.813313 34346.561195 34590.993146 31080.362666 32929.138273 31756.388106 33736.047258 31800.330509 33030.337327 30789.763390 32436.535484 31444.833883 33742.752865 30134.535338 33496.453938 27642.126036 31099.064185 28954.428484 32621.983325 29361.079347 31322.334751 16424.101858 15591.796365 14672.918456 13192.237509 11308.500199 9472.099172 7934.229386 6813.456718 5392.831323 2955.332297 1866.347053 2102.889454 -2601.843653 -4695.935647 -4313.618965 -5226.587016 -8921.933744 -10372.881176 -9387.737109 -8653.420224 -7981.246799 -7383.882635 -6876.312768 -6453.987619 -6099.151147 -5790.143236 -5506.933391 -5233.847722 -4960.383109 -4680.855182 -4393.463305 -4099.178730 -3800.700496 -3501.598653 -3205.680121 -2916.563319 -2637.424394 -2370.871609 -2118.907750 -1882.948086 -1663.870002 -1462.078074 -1277.574399 -1110.028170 -958.841354 -823.209086 -702.175306 -594.690495 -499.715092 -416.626230 -347.707077 16154.625796 15145.133370 14392.928641 12831.008316 10915.497471 8509.225479 7279.142171 6058.976841 5765.280338 889.100130 -3927.548502 2291.576190 -5451.365774 -6426.552121 -3768.010273 -4084.660454 -8275.481047 -10692.393922 -9388.902956 -8609.238108 -7984.902633 -7399.638157 -6893.638467 -6468.608449 -6109.671715 -5796.608784 -5510.084562 -5234.674121 -4959.856158 -4679.786859 -4392.452553 -4098.613301 -3800.788517 -3502.411530 -3207.195236 -2918.700447 -2640.073621 -2373.912894 -2122.223467 -1886.430261 -1667.423878 -1465.623339 -1281.045016 -1113.371477 -962.016731 -826.185980 -704.928010 -597.172995 -501.712536 -416.855948 -338.149903 36332.996478 34860.487976 32657.298764 31137.995295 29358.607167 28456.780370 25985.588837 24500.415625 23645.922866 18964.057418 16689.996800 14315.065879 12477.825330 14350.378821 11571.504831 11814.001370 11904.508613 15424.200521 9427.252412 853.902623 -1070.424205 -1578.848067 -1919.945493 -1617.713693 -1465.668189 -843.411702 1719.944766 9908.010389 -39.613468 -9055.947766 -4778.800343 -3201.891036 -2437.691721 -1741.930056 -1117.608620 -604.458579 -223.169444 30.026166 175.393674 240.152298 251.194297 230.952129 195.931922 156.969610 120.322613 88.974733 63.809817 44.516560 30.208245 19.783026 12.002931 32848.962098 32484.353846 30198.277091 28001.905424 26315.434610 24807.782944 23160.635928 21845.666575 19953.777462 17254.128182 15392.533747 13930.684123 12521.024273 11939.675678 11195.763104 10830.792454 10323.229464 9169.415869 6974.748847 3915.800332 1393.464050 -192.495035 -1044.389243 -1397.972403 -1349.301808 -750.132851 566.679529 1696.240333 785.945533 -1593.613641 -2955.364355 -2935.768171 -2384.019141 -1741.615428 -1135.675186 -629.392857 -248.615405 7.864530 158.269875 228.298457 243.923609 227.185686 194.562591 157.058929 121.170722 90.113096 64.957944 45.530643 31.042401 20.513082 13.160373 -300.357616 -278.852644 -285.253814 -265.275785 -246.306377 -235.624069 -200.758071 -199.622564 -165.515959 -165.786974 -136.281551 -136.726384 -111.817032 -112.234198 -91.383476 -91.746342 -74.386340 -74.696321 -60.310382 -60.573129 -48.705410 -48.926844 -39.179752 -39.365391 -31.394818 -31.549660 -25.059803 -25.188320 -19.926524 -20.032674 -15.784460 -15.871719 -12.456085 -12.527480 -9.792551 -9.850697 -7.669743 -7.716883 -5.984725 -6.022771 -4.652574 -4.683146 -3.603588 -3.628046 -2.780841 -2.800324 -2.138075 -2.153528 -1.637878 -1.650083 -1.250138 -1.259737 -0.950732 -0.958250 -0.720423 -0.726286 -0.543941 -0.548495 -0.409219 -0.412743 -0.306766 -0.309481 -0.229144 -0.231228 -0.170556 -0.172149 -0.126500 -0.127712 -0.093493 -0.094412 -0.068856 -0.069551 -0.050534 -0.051057 -0.036958 -0.037350 -0.026936 -0.027228 -0.019563 -0.019781 -0.014160 -0.014321 -0.010214 -0.010333 -0.007342 -0.007430 -0.005260 -0.005324 -0.003756 -0.003802 -0.002672 -0.002706 -0.001895 -0.001920 -0.001340 -0.001357 -0.000944 -0.000956 -0.000663 -0.000672 -0.000464 -0.000470 -0.000323 -0.000328 -0.000225 -0.000228 -0.000156 -0.000158 -0.000108 -0.000109 -0.000074 -0.000075 -0.000051 -0.000052 -0.000035 -0.000035 -0.000024 -0.000024 -0.000016 -0.000016 -0.000011 -0.000011 -0.000008 -0.000008 -0.000005 -0.000005 -0.000004 -0.000004 -0.000003 -0.000003 -0.000002 -0.000002 -0.000002 -0.000002 -0.000003 -0.000003 -0.000003 -0.000003 -0.000005 -0.000005 -0.000006 -0.000006 -0.000009 -0.000009 -0.000013 -0.000013 -0.000017 -0.000017 -0.000023 -0.000024 -0.000031 -0.000031 -0.000039 -0.000039 -0.000048 -0.000048 -0.000054 -0.000054 -0.000054 -0.000053 -0.000041 -0.000039 -0.000001 0.000003 0.000087 0.000094 0.000257 0.000268 0.000562 0.000580 0.001086 0.001115 0.001957 0.002002 0.003367 0.003437 0.005607 0.005714 0.009112 0.009275 0.014547 0.014795 0.022933 0.023314 0.035886 0.036481 0.056046 0.056996 0.087852 0.089409 0.138972 0.141586 0.222844 0.227313 0.363091 0.370770 0.600908 0.613847 1.007174 1.027148 1.703722 1.722913 2.911756 2.852397 5.189825 4.442138 7.658494 6.071094 8.832198 7.050244 15955.112320 17812.377194 14246.089394 17236.257536 17506.357973 11346.141695 15827.296001 15435.488024 13441.960099 11597.310300 14548.195479 18084.656717 15413.470044 13905.325080 16155.608423 12436.267679 9475.629422 11333.135914 12213.260360 11525.460946 15057.022345 11391.278545 18903.190317 17061.500089 17677.229253 17234.463589 14282.818894 16533.503645 7501.302193 16078.414382 14899.953815 3740.171384 19095.062805 16859.950047 16981.364415 17527.624575 10598.523607 15308.675919 15772.323609 13544.637450 7816.216520 15603.840113 6862.467157 16900.725710 13855.180308 9866.264556 17021.038581 18364.230565 17665.296203 16949.717038 17296.819926 14693.844698 8164.663609 12757.782481 12928.672707 14857.268318 17919.600830 18329.518653 21031.327644 17837.686634 15016.833506 18013.087694 16128.213408 12798.116359 9623.105578 17617.319023 14951.499165 17536.768414 20086.255060 18388.016334 17846.877045 14475.893745 15122.399314 14888.638989 12981.984710 15177.792101 8258.840981 17434.022734 17733.560270 18008.612752 17158.080325 18828.096053 12327.952093 13293.488400 15012.282923 14941.400025 10432.583589 9343.212597 19263.141478 19466.745683 17703.890957 17590.530375 17847.178868 14189.173112 12193.212769 15098.081187 13580.915315 10774.966206 14798.198610 18687.479250 16819.311338 13862.212111 16490.017243 8970.319740 17499.555746 11142.141326 12993.817741 14677.369901 4682.745220 12116.101874 19507.358876 15726.024845 18302.553030 7132.080195 17013.353264 10024.687729 12826.549901 7294.605626 8047.925925 5887.965722 3618.676923 18230.632415 17595.291782 12298.553566 17203.245940 7554.988800 13715.283085 7870.474246 9622.439440 13551.492938 10493.688091 10192.423669 16661.076887 15558.960669 16387.251372 13543.885234 13095.009825 12887.220364 14253.502882 10241.381011 14693.226647 13635.544164 10316.069733 16615.516638 15299.901797 17817.049908 16924.646502 14820.061778 12970.437975 13973.948411 11570.021990 14182.645744 7051.405159 6817.022789 18271.414351 16295.602183 16691.331843 15955.744752 13657.162336 16201.615289 10179.106376 11679.219106 3667.424186 8560.098548 5282.670319 18065.831869 16469.774866 17291.909530 14900.520255 9491.457919 10237.693441 8763.032485 4715.573351 3543.629760 1410.031098 3473.595227 17538.030256 17536.246724 15098.163984 17147.487718 14125.364039 14214.681077 10220.401292 12300.670905 5665.928334 1624.885267 2275.929676 18082.218459 14390.509746 15741.624216 12613.419683 8022.914018 5729.827337 4844.195597 4502.531929 2525.009965 1923.242452 1944.331667 16974.460150 14896.262269 13773.583170 13829.402127 11455.909193 6669.556475 8084.752314 5806.764214 6542.875487 3513.916065 2158.331959 18100.810961 17352.744789 16948.041233 11210.232784 7275.651057 7339.498765 6826.320443 5126.933572 2175.082056 679.462456 2194.331385 16970.693780 16242.411090 16310.471887 14250.170684 9084.210185 3721.257233 3583.106864 2905.993967 2035.112907 2558.237016 2039.952037 17487.301673 15240.632771 13709.777182 11751.843703 12230.636264 3340.287220 3883.506192 3846.748187 5247.833865 2463.552401 2747.065013 17445.901301 17112.451748 14538.167337 10910.187138 10511.034425 10441.892784 1677.531518 4449.572432 2560.186582 2771.854839 2924.156839 16008.316301 16392.941988 13395.219441 12360.531124 5179.238869 7660.053665 10477.290450 9642.416519 5951.427410 2806.644649 2759.663555 16721.272270 13471.973018 13189.973597 8997.945606 9255.289293 12536.547640 6509.756976 2718.256570 7899.956040 4178.576462 2514.680219 18182.068461 16282.688002 14730.214924 16489.394296 14157.379229 9508.836757 7193.092942 4636.628438 6717.041710 6766.363127 3216.726885 17308.991721 15467.433381 16241.817442 11667.783275 13596.935137 6295.801189 10305.453577 2291.084431 3519.311664 2569.718926 4831.174929 18203.658784 12981.344921 9916.938011 12414.286411 13174.310013 11574.016893 8853.303494 11954.869168 2228.174696 2653.486821 7504.223034 18213.651052 17923.153425 14310.258600 12643.151501 15724.745085 10480.218170 5142.293580 7129.176946 6150.753504 6720.226714 1507.457489 18285.915555 19016.734486 15168.342894 10191.328634 12101.890474 9904.910138 9678.790149 4570.255941 8709.234864 6141.335821 5418.923835 18495.428928 16641.152287 18958.988781 15331.795492 12569.658539 5349.177669 8828.489719 8725.465314 6468.641270 5066.067023 3554.029094 20883.110330 21609.088439 14495.089816 14673.958335 15144.070072 12671.060709 12649.925892 7896.598225 9516.807913 8012.561584 2257.891814 17620.299426 9619.320206 18127.589417 15816.808642 16526.800004 13312.325787 7097.023224 9577.681049 3674.974514 6406.159124 2377.507796 20897.300052 20065.860948 17085.837628 16158.880230 14941.391590 11787.455231 12151.285515 9378.521525 5818.026474 3733.321214 2094.043735 21169.632759 18318.452457 19516.474073 16755.376639 15562.035840 13968.676368 12040.182873 6463.310331 5343.597248 4452.297474 2255.689971 21288.871820 19859.289132 18107.885194 17143.689078 18443.766309 16712.134111 11815.505338 14853.721795 5188.137288 5395.543787 2875.393450 20210.063311 20598.216502 16070.248532 16093.630820 16941.880056 12370.011851 14578.993842 10973.260911 9860.255534 6153.434449 16626.043984 21087.321321 20562.551077 20798.186484 20523.085367 17635.705836 12231.060635 14582.063405 12224.775408 13213.589328 4388.205200 6622.522748 23036.940251 21323.372306 19501.437415 15635.736855 16159.645928 11806.438010 9966.360883 6691.779890 9292.556112 5069.460563 2746.081475 21673.335180 17390.116811 18908.355095 16445.999413 8048.434469 13128.702762 7199.405335 6542.849891 4020.239641 7942.868690 -9793.542785 23731.998873 21313.042263 22231.872847 19322.278937 17325.203784 11690.962505 8303.589362 6000.157565 10689.367557 3932.101245 6982.356223 21407.857112 20530.484632 21407.229908 17897.452962 13810.893743 13144.922013 18308.414630 7685.924222 5510.467083 3754.894288 4137.973736 23940.508796 21333.204906 20907.345770 17695.258440 17612.771700 12244.673102 11927.276826 10936.797597 5959.373430 4359.145228 6547.066014 21763.005894 20622.820600 21000.338822 22530.489861 16330.747597 14943.998858 9256.409123 7510.230120 5246.322342 5104.226026 -10091.679643 24655.031568 21979.347119 22504.996173 14289.682664 14911.083311 15029.881888 6008.685021 15854.449022 8823.191021 9645.955801 3421.507524 23669.776172 21566.185776 21952.025002 8783.377617 9252.378882 10505.645699 9312.341515 7167.336153 4123.323428 10713.075202 4292.319458 24122.128554 20318.774189 19388.533924 20135.227956 10308.080089 15454.520851 14119.778587 4133.900235 8049.269831 14597.807205 5225.152175 25197.134711 24138.992225 21327.732390 19964.972933 16728.359078 12081.502584 7181.446182 17945.311777 8930.952610 1731.537347 4296.120537 25141.097302 24579.605948 22331.637589 18364.968968 13041.254793 17223.365263 18167.198736 8652.036942 11952.960243 6328.001968 6189.006247 24895.491462 24169.076363 23728.656162 19254.921616 19372.819370 16292.533067 16843.163907 12034.256727 11962.778108 5794.017684 5187.211179 25490.679544 21352.443759 24417.790138 20022.374135 17483.696859 16715.664642 14567.367246 15584.217386 12004.991345 10344.445426 4933.185255 27598.474763 25024.504185 22973.561023 20877.066197 19074.138636 15767.448060 14580.077735 13180.054016 8745.172505 4923.895181 2895.550463 24573.424989 25411.655645 23845.772338 21927.036839 20811.803953 18182.906838 14844.399539 12380.534250 12176.601554 13373.019152 4238.633370 28226.524452 25477.700426 23127.996882 21800.025333 21077.469284 18393.572028 12262.468073 12962.843120 7234.453819 10030.441305 5585.772840 26637.921931 24770.232116 23811.871047 23572.157326 15967.821723 11833.881354 10757.025757 10790.369067 5150.458479 4478.427077 2876.788728 25699.810781 25771.397665 23387.863187 20601.231381 17104.803550 15784.171628 13344.873896 9902.134353 7220.484375 6114.592722 4409.174655 25930.923671 23971.413133 23535.798887 20909.068728 15618.823801 15396.490662 14328.488835 10760.400348 9911.900133 5587.665800 4374.316555 25800.980915 27003.980035 18778.797985 18278.025332 19357.045854 17239.313650 16784.560613 14437.351228 12392.498825 9355.138324 4961.275732 26155.840285 23594.099451 21335.298855 20855.284949 18348.756058 18322.041672 15914.735114 18394.845370 12931.071247 5083.591040 4919.758068 26511.217966 23254.312012 25476.220509 21940.652928 19162.419813 19431.005990 19286.133143 14678.699214 8926.452457 8846.873254 9414.788369 24749.056640 25007.052736 22482.126188 25423.708304 20757.584730 20468.378536 12021.110749 7739.482132 9185.887038 8170.899771 -20709.268000 27384.266353 25659.799836 23280.859739 21528.202322 21880.455044 18891.709864 12920.958794 8928.729630 14352.607078 8888.142279 3727.884615 29471.572802 28782.975283 23986.250412 21894.712152 22392.603967 17823.182815 22484.290420 11088.722089 6824.517789 4036.397765 5325.916213 29571.763954 25550.335507 27515.230406 22945.317824 23745.435563 21473.610718 16735.046373 15919.953263 5360.785417 4032.167967 2725.167187 30224.008697 24912.935189 27449.827558 24462.736211 19944.125156 24112.349403 18120.836178 14549.847961 14510.164907 9276.537327 10523.392895 28308.371988 28884.613607 26267.651110 24544.815514 22023.351807 20935.140176 16166.713846 15068.274060 9336.646436 5386.062888 5416.733650 30614.275333 29215.563051 25946.939074 26071.270614 19726.133951 19755.250732 17914.642080 11102.046227 9492.828169 6302.655246 8743.701892 29265.468440 26939.217461 26502.595753 24469.200906 19112.872657 16185.389643 12293.179630 15164.806270 9761.102051 7378.866025 -27.031576 27624.430788 27702.017994 25222.943422 24969.813038 21293.160938 15267.523305 19146.233260 12314.147478 11622.580284 5985.147919 5688.953240 29143.302277 28938.208522 28474.662313 26034.573773 21553.183989 17243.485492 19244.272994 12633.862802 8314.993909 10717.164107 19712.415682 27739.481013 29179.828947 28972.674401 25732.819907 22089.138392 21141.358509 8742.813998 16670.071690 10592.214597 7589.980964 2893.986687 30669.411698 26649.333368 28264.908249 29316.383450 24262.284713 24730.019414 17817.432251 12225.674660 9413.192763 9517.508165 5437.971339 28895.871178 29514.673097 32192.823618 25147.152006 20688.814819 21366.779007 20779.652312 13710.018780 14940.999582 5981.888180 -1835.533630 29042.606488 29264.124828 27820.576489 27962.206992 24220.464736 23642.922816 17821.998908 12107.186444 8103.420493 763.396228 3537.911873 32697.866517 31225.613166 28535.148292 23013.785607 24888.448961 20044.149373 18486.930290 17356.667687 8124.702533 8854.976027 -343.138226 32327.911306 31088.245919 26242.012707 28561.053983 23944.313309 17026.272279 21759.432430 12686.897257 14379.806201 16531.779974 1128.067605 31046.712038 30746.269567 30205.721471 31500.576923 23338.438661 22366.185098 17010.003515 12140.623172 10916.732405 6447.721855 3541.105959 33020.856676 31679.368200 30278.604940 29024.981345 25783.181155 23047.551326 15782.023063 17341.020513 12020.424848 5670.458702 15510.984931 34834.683235 30612.750589 30529.148753 27440.738666 26103.557510 25880.231967 23229.424044 13766.813733 16924.452453 8908.898211 12958.959024 30927.945719 32601.345212 28204.158104 27885.006201 24669.024387 22449.146198 20075.248823 15201.841525 14765.567615 10482.949913 9161.064656 33352.680351 31089.051607 32318.135880 25781.637511 27575.211157 21475.823118 17077.389889 19138.615244 14167.420706 5665.855673 10949.735707 32043.448785 31624.913001 28320.931056 29606.398646 26317.131800 22625.587283 20137.831617 17792.784028 14656.330020 12786.510642 14645.905192 32872.065042 30759.928469 29988.226238 29925.848414 28094.693122 27278.643512 23776.963400 16594.758888 16513.191293 11598.939642 5276.341512 35159.806985 30779.146914 30985.897974 30079.201075 27198.187318 24577.320198 19127.129523 16142.394313 15152.107383 12176.248349 18753.277668 36287.264753 30780.766247 31611.836531 27633.098745 27140.654449 19552.357492 22380.135350 19785.919228 18564.568313 10723.645011 8199.009664 33637.011484 32062.951105 29032.098436 29575.584170 26521.828755 23094.016067 20594.236016 18368.639552 7133.647237 15433.502996 13137.111108 33847.479451 29548.033080 30776.236603 29265.795527 24997.118594 21619.459598 20479.574847 14255.612624 15708.864235 10341.430642 18246.186451 34035.300131 34239.183793 28231.940524 28518.909761 24074.638175 28298.507079 20957.791582 16279.432697 15653.939695 2558.411910 -4769.319290 34062.184659 32585.440535 33481.199341 28515.144583 24131.161779 26024.653015 22772.617013 18874.473214 19129.038284 12343.043352 6434.425203 33482.536020 34498.640678 29633.872147 27928.360900 24154.911770 25743.557147 21093.871737 17015.647689 12146.356591 15020.833387 -1860.811497 34201.521401 31524.157403 32954.350635 30951.195050 27368.278809 26184.484874 20999.753043 21756.551401 20143.614920 17192.464235 7891.244412 32014.264874 32498.543208 28822.544905 33591.702517 24663.167272 25690.190530 18470.280196 21199.899065 18200.733203 11909.021275 17130.688437 32399.500309 31206.764403 33789.427934 31278.740234 30181.077718 21043.005690 21780.403505 21108.291008 15462.247270 9224.013857 22043.967009 35034.627217 34320.743246 33466.536426 30554.535876 25652.061936 25195.677252 25929.111381 24460.958139 19355.132478 16332.855891 -4769.319290 33031.189180 30487.420540 31535.251487 24974.028201 30028.366519 26277.243109 24004.965406 21332.054677 15962.504666 15948.183638 20047.966813 33886.471591 32334.727867 33984.172293 29190.658700 26455.271147 26449.630881 25460.868440 19312.620673 16675.157501 17077.625785 5474.667815 33679.906930 35263.235558 26667.034764 26233.151745 24800.439469 20214.373296 24638.045530 18414.940069 19969.151537 18349.836329 -7982.610509 30640.999418 33819.357881 33845.681989 33085.426109 25706.353592 24001.940229 21267.598109 23880.196265 19402.660030 17427.945623 21696.444421 33074.030799 26842.845841 29357.823001 29769.732215 33359.948634 22159.282453 30907.705173 19335.451723 21952.817535 15356.686267 23501.043026 33456.935243 32299.111499 34585.170511 34407.649973 25630.833924 32038.417589 27724.061287 21135.744035 19452.616706 19094.509488 21805.387380 36297.065616 35764.302727 30984.329430 34419.048868 30493.482058 24219.879330 31678.339346 32349.237037 17576.839892 18369.736197 17141.211337 11488.021803 16860.919157 16472.114045 13466.775152 9163.005676 14209.098815 13496.786241 11208.893485 13541.857959 11305.542030 8814.217872 8876.731195 3784.974659 -10570.602512 13884.148813 9232.859379 15734.334225 13691.267353 6312.370716 16104.454257 8990.608302 7409.449845 13173.287660 4871.542561 9895.457779 6720.531518 213.318553 8663.548427 7020.122366 10614.798563 9635.718155 4575.869145 8699.961575 5357.871120 11013.365229 9079.653825 11347.359007 7896.030207 5535.862894 5935.012365 8435.315947 4044.699093 10384.869014 9785.457657 11490.807033 12209.500384 8094.683333 9807.516233 11508.437863 9767.592773 7160.538604 9313.805324 8315.856955 5330.020306 3307.574624 1844.646438 11816.401022 17280.703300 9753.926260 7064.469340 13865.327084 9459.307938 9918.508289 10947.708885 5783.505604 2879.326546 6515.015791 4346.745259 4397.177753 1509.504476 9891.559962 13927.432061 7373.923102 17172.865163 14156.383696 12168.490913 13569.292054 5764.412534 5175.412407 7264.597016 6940.202414 5203.020072 8231.446641 2881.774247 17292.983288 2645.648613 10218.249033 7285.688055 4153.457214 8715.754619 9847.959243 10410.963189 6273.994089 4556.275866 6925.432766 5184.376332 2781.494018 3608.461322 8756.346950 8692.092925 8150.737773 11638.149431 8411.327025 13409.641259 7537.471355 6533.678234 1831.422579 4458.437917 4801.932099 5084.030196 3539.244447 3101.031604 11905.925887 12896.363501 5851.719974 4808.903869 11055.372426 5016.235536 6851.533974 4241.716014 4245.374285 7153.919247 5596.159096 5450.175716 1884.607388 1537.323332 6371.482766 6837.709431 10479.319093 6483.939139 9633.366251 3971.051623 8786.012507 5127.175030 9704.090303 4851.938800 3114.539109 4654.198725 1837.363209 1829.553806 3904.193749 7144.846793 12801.612619 7438.332224 5173.383309 4060.677966 3691.780469 8448.030535 8156.675532 6105.522869 9622.439327 4776.486861 5782.757387 5772.502544 8894.206698 3000.621324 7290.582634 12369.364334 3575.720550 7869.833621 3280.691999 8563.742420 3774.633042 7421.394278 4161.806858 11085.295488 3840.999768 2822.859988 3793.693252 1623.490476 1231.590100 3832.014841 2467.466403 1837.517064 3823.721776 11328.201478 11202.051458 6372.632323 2431.681388 3580.503128 1183.940576 3154.736912 2397.495671 2554.801590 3630.443974 1560.466009 5418.440096 1795.358709 4054.039573 6426.982913 2694.525820 8346.916224 4896.985933 2080.095611 2704.378993 3905.558985 3203.545279 2817.844773 1252.005910 1817.917998 2010.171311 1235.420540 6482.096873 2538.268886 2043.010694 2082.575096 1787.223924 2470.749313 15.726362 2792.195338
</DataArray>
<DataArray type="Float64" Name="Velocity" NumberOfComponents="3" format="ascii">