<VTKFile type="PolyData">
<PolyData>
<Piece NumberOfPoints="1945" NumberOfVerts="1945" NumberOfLines="0" NumberOfStrips="0" NumberOfPolys="0">
<PointData>
<DataArray type="Float64" Name="Pressure" format="ascii">
 21875.806558 22370.531164 21091.832696 21982.096412 19351.904118 19914.273645 20037.724237 21052.653016 20177.393633 20781.628941 21652.125916 20409.597006 22322.636894 21244.743104 22701.258685 20796.119490 21754.388990 19466.106455 23020.383386 21950.103300 19655.644453 18895.170777 20048.308285 20679.678043 18386.510069 18722.088340 21001.844708 21043.177009 17716.490253 18745.519486 20176.010293 19879.683997 19868.663082 17727.386243 21848.485851 21039.463961 21052.782388 20215.673278 22582.252441 22222.395659 19136.718801 18761.506221 22421.826831 21117.718683 20484.958890 19480.012633 21099.952380 20956.742107 18104.686861 18925.552312 21010.356272 20536.798382 24659.523155 22044.568871 26850.786598 23492.417426 22582.828942 20300.506761 23854.738781 22572.548682 23016.549489 22339.310570 20217.886962 20964.044458 23057.750091 23574.173341 20809.606766 22764.228706 18421.826648 18826.698523 24951.101502 24547.378804 22338.866052 22507.201971 22849.197476 24824.528518 22698.693096 24902.813545 20464.222204 21560.067752 26892.040022 25155.811667 26803.267667 26025.442062 21814.140873 24276.243423 21743.870395 24291.500922 22663.040151 23669.271107 24198.829544 24492.420919 24658.474741 24004.724794 23434.141298 24327.912832 22963.506628 24378.440763 23409.240662 23424.828210 24609.115333 25052.779927 24226.798369 26838.679296 25520.231422 26481.008856 28822.492296 26040.915261 28084.411370 28483.173970 23272.164813 22370.344579 24276.990317 23510.808733 20911.703434 21528.741543 23352.689885 26106.391425 19367.380376 21898.371415 22477.066320 23916.758437 20793.313396 21831.588830 24540.355297 25923.886113 22000.089944 24504.144762 19899.277159 20343.403804 24580.871755 27817.403622 18941.025863 20916.883091 24954.116531 25250.758560 20348.616026 20034.119128 24358.113135 23865.283623 26494.130743 25388.160070 20022.642780 20735.614222 22343.019152 23413.592514 22944.827655 19892.705821 25481.844335 24159.793192 20826.880745 20175.446999 21481.701478 22400.795959 19560.447749 20413.689395 21291.522155 21727.712759 19291.047524 20638.017986 19096.849554 19023.628434 20535.971221 20549.444268 19611.252049 19944.921416 20661.498696 20324.497252 19974.016771 18281.667764 21098.545744 19743.048872 22015.965937 20295.084783 20958.546374 19661.069889 21679.453790 20243.085545 19689.273292 18426.821992 18695.470815 18105.070201 18949.931758 17609.139869 22180.610376 19030.540914 24153.653613 19977.028065 23249.256800 20948.677804 22260.391106 21212.907136 21671.562937 20279.440883 20614.442442 19158.107505 22687.774661 20708.989708 20926.440610 19106.821475 21320.555322 19364.246064 22198.146495 19951.145149 20244.969724 19733.228504 21801.500315 22316.340300 23209.640492 23043.462644 20935.640794 19887.058076 18609.460003 16167.862901 14381.355003 12909.137378 11586.642519 10436.551516 8103.197455 4781.329783 4534.168213 5036.701304 3595.342468 1143.154762 -2492.146101 -5170.744220 -5611.222085 -5931.852101 -6194.852428 -6344.262834 -6403.835688 -6392.285639 -6321.558493 -6201.054213 -6039.119186 -5843.427277 -5621.032610 -5378.339645 -5121.061930 -4854.196042 -4582.022176 -4308.133802 -4035.492322 -3766.498915 -3503.074614 -3246.740406 -2998.691037 -2759.858470 -2530.963143 -2312.553019 -2105.031671 -1908.677456 -1723.656120 -1550.029154 -1387.759939 -1236.719563 -1096.695071 -967.410969 -848.627171 -740.682209 -648.046417 20953.573410 20159.814304 18538.993848 15198.081602 14204.341565 12888.926874 10884.076831 10604.973435 8776.931294 3218.747386 4417.811813 8121.393786 4688.657865 2138.333668 -1909.120332 -5084.990548 -5570.630044 -5845.774316 -6159.289823 -6322.897430 -6388.402319 -6379.926726 -6311.312302 -6192.574940 -6032.237564 -5838.011782 -5616.950584 -5375.449387 -5119.214819 -4853.242130 -4581.816534 -4308.542087 -4036.394740 -3767.792292 -3504.672705 -3248.572822 -3000.701243 -2762.001320 -2533.202351 -2314.858829 -2107.378915 -1911.044072 -1726.022135 -1552.376059 -1390.070281 -1238.975998 -1098.874826 -969.451306 -850.211931 -739.952660 -633.393362 20215.185607 17776.130727 18493.622806 15505.349736 13996.768427 13166.167003 9586.288742 9842.527074 9236.854233 7940.202217 7392.077907 8127.059832 2383.405989 -4647.844904 -1426.145742 73.466724 435.709882 486.867811 352.870249 128.683802 -124.097900 -371.724724 -599.139409 -801.293523 -977.142981 -1126.439746 -1248.559109 -1342.478062 -1407.220330 -1442.351991 -1448.332323 -1426.666481 -1379.880041 -1311.363365 -1225.137013 -1125.582225 -1017.170561 -904.217288 -790.674994 -679.977121 -574.935332 -477.689782 -389.707446 -311.820703 -244.296602 -186.926509 -139.126058 -100.035401 -68.605044 -43.608654 -23.323592 20778.336764 19167.003557 19036.884345 16775.060740 15308.180860 13864.223998 11244.238306 9707.526997 8189.766091 6495.647843 4997.162689 3630.095394 1759.220545 -11.439602 -233.211732 112.333397 397.812730 450.548078 331.473120 119.802936 -125.227029 -368.942815 -594.763667 -796.408667 -972.090300 -1121.230303 -1243.135680 -1336.840559 -1401.458774 -1436.630082 -1442.852458 -1421.634086 -1375.475393 -1307.723218 -1222.345419 -1123.668843 -1016.114512 -903.954780 -791.109170 -680.988850 -576.393878 -479.462538 -391.668131 -313.855678 -246.309177 -188.839394 -140.882623 -101.603084 -70.000060 -45.066241 -26.321308 -582.601382 -552.582059 -559.320605 -530.934311 -499.926139 -484.239996 -428.088328 -426.243543 -369.406254 -369.666823 -318.279147 -318.842831 -273.381839 -273.946757 -234.027226 -234.546252 -199.657952 -200.125752 -169.761479 -170.179864 -143.858840 -144.230956 -121.504352 -121.833650 -102.286373 -102.576371 -85.827567 -86.081754 -71.784532 -72.006311 -59.846881 -60.039520 -49.735882 -49.902478 -41.202768 -41.346226 -34.026822 -34.149840 -28.013319 -28.118377 -22.991391 -23.080750 -18.811887 -18.887593 -15.345268 -15.409157 -12.479574 -12.533285 -10.118498 -10.163483 -8.179579 -8.217115 -6.592523 -6.623729 -5.297672 -5.323523 -4.244612 -4.265950 -3.390914 -3.408465 -2.701019 -2.715405 -2.145244 -2.156995 -1.698907 -1.708473 -1.341566 -1.349327 -1.056354 -1.062630 -0.829406 -0.834464 -0.649367 -0.653430 -0.506972 -0.510225 -0.394686 -0.397283 -0.306408 -0.308474 -0.237210 -0.238848 -0.183129 -0.184423 -0.140985 -0.142005 -0.108239 -0.109041 -0.082871 -0.083498 -0.063274 -0.063764 -0.048179 -0.048560 -0.036585 -0.036881 -0.027706 -0.027935 -0.020925 -0.021101 -0.015761 -0.015897 -0.011839 -0.011944 -0.008870 -0.008949 -0.006627 -0.006688 -0.004939 -0.004985 -0.003671 -0.003706 -0.002721 -0.002748 -0.002012 -0.002032 -0.001484 -0.001499 -0.001091 -0.001102 -0.000800 -0.000808 -0.000584 -0.000590 -0.000423 -0.000428 -0.000302 -0.000305 -0.000209 -0.000211 -0.000132 -0.000133 -0.000062 -0.000062 0.000013 0.000014 0.000105 0.000108 0.000235 0.000241 0.000431 0.000440 0.000738 0.000753 0.001225 0.001249 0.002000 0.002038 0.003233 0.003293 0.005185 0.005279 0.008257 0.008403 0.013057 0.013280 0.020491 0.020829 0.031894 0.032399 0.049198 0.049943 0.075150 0.076234 0.113583 0.115133 0.169726 0.171903 0.250546 0.253547 0.365079 0.369131 0.524686 0.530031 0.743126 0.750001 1.036318 1.044903 1.421560 1.431918 1.915990 1.927964 2.533952 2.547040 3.282956 3.296147 4.157884 4.169458 5.133143 5.140456 6.152591 6.151846 7.117212 7.103260 7.870777 7.837069 8.183884 8.123122 7.736075 7.644858 6.088549 5.997165 2.600698 2.749202 -4.154810 -2.027212 -11.333369 -6.895517 -14.678191 -9.749683 20214.872374 21169.742520 16421.962587 20848.510580 18646.563091 13921.984984 17977.463584 18357.089549 18104.826995 15250.057798 16764.189273 19646.172656 18438.485855 15316.657891 17979.626376 14412.206324 10874.473830 14504.171737 16130.257920 13725.481580 14735.816760 15940.294912 19348.544308 16693.575912 20498.551212 16759.448238 17516.145159 18219.898156 11429.526659 16161.214658 13487.879823 4787.611686 16614.242772 18178.101179 19788.202598 18157.637624 10477.138945 16339.394804 17546.135148 14350.754093 8810.552684 14373.428890 7867.368225 16823.144076 13243.446809 7108.530057 18918.458878 19958.647676 18918.576270 16440.108706 16182.425945 15612.915783 8277.042128 12210.890050 14408.479433 14935.426737 16273.119114 18392.834117 20106.708500 18688.534473 15840.714433 18725.380654 15970.541707 13980.727780 11647.658125 17822.381882 17677.609214 15289.549544 20018.894173 16026.751480 17360.625958 16529.217811 16093.132791 15451.402230 14406.156211 14040.744247 7836.465765 17485.322941 17603.525641 17889.251074 16129.431984 17939.917198 14606.575646 12170.178015 16116.647807 16027.790458 10589.064629 10418.809057 20868.957454 19797.741587 16017.885620 17782.696214 16598.374482 13606.175236 12122.727111 16145.055077 14841.760786 11026.814446 13411.529509 20075.720204 17694.386620 13740.805378 16545.996655 11576.128906 19042.890550 12543.521801 14348.809776 16174.750546 4595.491776 11343.017961 19943.383505 16538.730699 19006.027683 5281.852144 20360.839173 11824.401983 16576.013778 8387.772369 9218.637835 7262.330823 5665.297613 19231.190063 19907.984430 9992.059820 18620.774189 6184.451369 14939.524490 9952.671933 12665.844649 13660.931570 15057.200030 11254.521927 21028.689818 16658.207310 17354.681537 16400.902094 14041.997518 15683.478340 14353.179854 9095.990827 20039.462841 19868.074539 12200.008122 19349.810444 18182.604136 19270.625483 19252.122830 18010.253369 15958.872312 16144.948866 13603.895077 15637.871121 9808.456624 10054.632240 22573.028654 18112.268215 20439.401827 18800.754867 14194.703036 20035.235372 11634.783187 12910.419463 6667.945565 9363.085404 6804.095847 21752.328826 19839.645497 20546.620611 16394.715841 14400.382596 12207.870136 13658.101205 7151.154894 3332.496521 4290.822276 1640.132502 20289.964420 21825.207767 18198.095021 19988.096671 17357.191270 15951.007071 11787.038125 13609.292721 7167.630251 2249.707188 -499.401669 22524.267920 17633.903500 19299.598166 13542.620830 11404.645183 6864.990941 4650.254533 4539.020548 5050.626969 3283.249477 2214.900401 22435.874527 20615.883347 19072.142305 19667.974102 14569.182411 6458.865651 12181.878870 7287.180374 8481.023872 4199.582801 3319.025747 22086.175916 23646.299190 21698.994502 17394.353886 10009.691961 7636.075364 8567.032373 5050.376883 4419.065936 4642.735727 1208.111165 21839.430759 19512.815695 21990.225413 17743.761681 9675.518870 4392.521314 4904.548691 3761.877657 5285.410961 3731.251048 6110.299645 23315.909341 22426.504916 16985.687139 14105.857870 14650.565361 5229.078220 6620.323592 3848.946004 4112.996816 3996.211408 4866.009935 22985.429516 23620.875551 20672.202444 11808.099161 13165.570171 11876.394295 2960.130193 6130.477399 3562.581912 5542.883810 2010.197497 22956.358269 21391.974073 16921.721087 13872.490241 7229.090210 9296.643687 13315.151548 11872.825562 10213.695448 5239.083758 1186.638554 22746.359453 19127.005220 17734.561640 14638.422185 11956.929706 14499.225856 7908.857869 4257.409951 11441.530167 4514.358081 2955.274036 24807.492263 20509.882160 17663.900292 20515.714470 18026.676243 13760.677054 7573.328457 7686.451005 8577.292259 7745.010395 4658.418972 23945.020777 21637.034840 19038.891682 14321.766984 19107.702572 5383.655589 11916.055054 5155.487888 5248.667950 3970.866466 2857.062313 21138.020012 14652.032393 13748.291886 16833.216518 13359.839381 14934.615575 9963.602011 13119.869531 3827.676665 6485.054384 8626.394505 20660.265658 20885.959507 16359.559798 18709.760652 17826.134418 11612.918271 5510.920009 9592.745547 5967.981733 7012.937532 3702.136899 22802.955151 22895.562862 18240.170466 13700.077748 13176.922811 7340.146930 10172.862129 7331.500707 8566.607862 8584.516932 5074.461598 20509.855843 17296.113320 23965.740195 18187.514541 17204.662407 6119.838365 9558.496567 11410.994242 7295.370782 7257.745101 5027.568393 24132.396657 22963.506219 16854.407626 16571.840384 18470.473222 14087.693177 13851.470675 11412.423570 10996.948358 9934.497901 4297.990365 23085.487281 11022.737677 19167.421769 16690.848787 18534.191018 13364.732006 7291.405810 13243.170327 3857.450216 7512.811036 5641.144230 23770.967816 23646.631062 22615.969056 18498.691111 15962.929256 11211.297703 12277.495734 10028.971855 6425.490659 5210.358730 4342.719684 23685.067211 20064.798404 16213.177098 18302.848174 18191.503476 14672.008235 15146.726045 8036.562618 7066.998025 6449.117272 3654.523341 24362.617436 24962.699864 19897.341169 18967.674477 18105.901369 16807.579577 13125.868871 14954.108841 4374.739466 6417.465766 4389.502530 24476.671496 22835.938110 15964.695922 18279.580110 21233.082547 13575.616617 14473.089454 12830.842555 10738.128697 5933.993306 -2145.530136 19126.268870 23540.789865 23602.529857 18838.721650 17346.850670 11413.803202 14820.997454 11630.110211 18076.467008 5428.856013 6367.654966 23795.068299 24334.111678 21323.625735 16455.209158 18395.327009 11331.551960 9118.066112 7317.094527 7305.751690 4775.120383 3092.593182 23633.506704 18481.450076 23207.648203 17917.342955 7520.821275 11460.390799 7297.297892 7204.577054 4559.549260 9191.229220 6850.607650 24786.899944 23520.250634 24261.770543 19672.004964 18473.953460 13380.285734 9381.175767 7894.931260 10423.955753 4947.151673 3623.079322 21142.262297 21393.155808 22301.860500 14816.440454 13917.492219 13189.953035 16580.001422 8131.286630 5785.556267 4454.510453 5144.923885 24519.878242 24677.435920 19953.002246 18001.875131 17159.267012 11418.088313 12080.214964 10790.627618 8924.590270 4953.396212 7265.465139 20916.720963 21381.932216 19688.025553 22744.127673 15369.817974 13067.586040 9203.165498 10136.376347 7183.107102 5732.835807 4022.815251 24974.073026 24137.116979 21552.323589 12771.033220 16569.884044 16227.803921 9969.327928 15626.437577 7094.791046 7870.166273 1919.148273 25760.315207 21623.218841 24785.238428 7215.101092 9250.638580 9334.476678 10170.014346 8104.929655 5098.344144 10155.758007 4874.076587 24125.281177 18994.793383 18019.818588 20805.947128 11156.225080 15715.218298 14773.812480 5664.057937 6219.584178 12797.316724 6493.253396 27399.484324 26591.691793 19212.808171 20214.378450 15454.480800 15184.265749 7823.523498 17689.504078 10444.896939 2563.110193 2482.817338 26583.925872 28071.910030 20916.789917 17244.529808 13342.470140 17348.315988 17338.978914 6850.697582 12747.476321 5912.911930 4727.098910 22328.672253 21130.351061 22603.798802 16630.916900 19988.237565 15779.889714 18616.113834 11000.134423 13395.771223 6633.359706 3520.240416 24099.735819 19387.488272 21762.454813 20764.528095 14733.485728 16532.752489 14392.767960 15605.661930 12280.506978 8813.430575 3245.347259 26177.850607 24035.794536 20384.054015 18463.312186 18970.901353 16548.053597 15997.027119 13370.367240 9351.597470 5230.628003 3925.780426 24625.130603 25939.686119 22577.556706 20926.620461 20194.509692 16845.427481 13862.548539 10572.351306 13558.804469 10216.593301 4560.389160 24391.061069 24700.299888 20071.992456 22702.347193 20063.227339 18935.722373 12690.530271 12148.180614 5914.875149 6966.020929 4068.107185 24218.439484 23542.523816 22695.779764 20472.228466 15329.090001 10356.496266 9222.764618 12338.818048 3713.705668 5640.329910 10785.084571 24254.664623 25395.682697 23491.633801 21872.466571 15950.398249 15300.604517 10786.957219 7165.501314 6684.588925 6289.374710 7481.527933 23566.459056 23663.169901 23013.476411 16898.311663 14577.195420 13419.977616 14975.756445 9544.027025 7949.957186 6718.250480 11039.806190 23918.937750 25147.141726 20196.196519 13361.088058 20270.755071 13473.626980 15018.517935 11328.558893 11761.024370 6848.057985 4987.288492 24376.180034 21760.341268 21594.581564 20207.226824 18360.231649 16800.305416 14748.135892 17914.037753 8511.246082 5502.868962 3618.706262 26675.990867 23132.436699 23533.436706 22243.925278 18876.522731 18888.134713 14813.601081 11119.839764 6975.174201 2772.577374 7624.781486 25350.647296 20880.038328 21043.594974 21448.432772 17550.680996 16218.000822 9637.937417 7071.880891 3870.194186 6047.872194 1477.955639 23447.563164 22521.103004 22255.800555 18764.009434 20474.264044 16283.036610 9089.814322 7717.878520 8803.708726 2535.950003 3825.778269 27467.506151 26461.996980 22934.556678 20227.308089 17839.684264 15458.173166 18958.955627 7247.422460 4609.752355 5454.094613 4066.382161 23792.695391 23864.704930 21539.847191 18881.088930 20597.256274 19323.156616 11674.220922 10878.529848 6365.778689 4750.773130 2968.297668 24738.077565 22487.095816 25097.156482 22255.849254 14525.088577 20583.136470 14098.343231 11157.670311 6542.818707 6933.969742 3397.656040 25939.059132 24099.968188 21265.797809 19831.295277 16520.010236 14607.752357 14889.721646 10673.556416 7794.719053 2354.119319 3984.473343 25007.149368 25151.180269 23087.108108 23511.769989 13544.851214 16223.685482 12374.522990 6766.825059 4723.268909 6067.979384 1381.246478 24704.697652 23071.107616 22583.168260 20328.790491 13654.673833 9528.798025 8256.352075 10305.431770 6572.161035 5908.175721 1423.109822 22569.246974 22510.452329 19475.383757 17620.517627 18383.321076 11254.160546 13611.574996 8200.515500 11825.632847 7728.200579 1585.766630 22623.806411 21622.811388 21217.881095 20974.020755 17282.348057 10409.156904 12335.359353 8441.849183 6704.995951 6302.391302 8882.917350 21082.826404 21535.985258 20818.902577 20009.274009 15637.181799 15780.654034 7336.425102 13108.543356 8256.155366 6780.134546 4310.181923 22483.688138 19382.825121 20271.538337 20582.719510 18189.048519 15746.595921 13736.005434 10134.850513 9347.382417 9271.125662 9330.934026 21865.303393 25360.468338 20997.003489 18321.014056 14486.473729 17813.974537 14033.159480 8194.664014 9877.081243 3732.248420 -633.047741 21199.536482 21061.059917 21050.083635 19127.102487 17706.415913 19449.097979 11022.113015 9619.915800 4413.015562 2489.947004 3004.969318 21709.668431 21018.038570 19904.939920 19301.155610 16813.030706 14598.124801 13049.621622 10508.468517 6500.404048 6889.971449 -480.388799 18408.574644 24005.587773 17362.078456 19367.261209 16464.811899 10263.198925 16289.213025 5923.396946 5804.617924 11365.073644 3912.360380 21293.351088 21554.459273 21277.043754 18356.313150 16700.452669 14523.043344 13887.109956 8557.572968 8716.455117 5194.443882 7095.925642 20114.537293 22254.795255 18931.414186 19530.727097 16020.983315 14198.039649 10686.094721 9833.291492 8367.831977 8149.422836 9424.630538 21046.425359 18518.388110 21065.405658 19623.338444 16761.647221 16148.291920 14787.151681 10573.800139 8486.611694 4266.267941 4969.205652 20122.611206 20735.634760 21304.988450 21354.716396 14815.820799 12210.914760 11912.810056 8980.237088 7963.582109 3395.788144 8525.869673 19956.313179 21380.963541 19954.465976 14358.217150 16672.284000 13163.403591 11994.698378 13417.061386 8887.902688 890.411302 -296.074707 18881.662890 19729.611540 19097.706644 15592.060651 17903.621648 15670.624864 12606.019689 11230.249788 10868.115531 7765.832476 5804.328206 19528.422980 18074.224980 16390.622437 18774.139932 16892.868787 14197.418237 12189.518784 9443.611619 9300.837704 6986.389038 1252.049663 18859.542090 16019.857860 16203.310269 15152.109769 15953.611115 15231.720876 9683.172034 10780.345535 9195.043605 4749.822744 2352.669628 17046.989212 15985.897729 18228.124529 18328.260493 17609.933842 10366.829353 12325.443766 10157.008367 9358.227432 6019.498985 3354.097141 18366.760227 17796.809480 13474.588053 15856.326287 14370.125449 14848.683233 10990.881795 10071.141104 3564.044318 2085.863523 7028.742579 16404.326762 15288.973275 15932.576882 17185.356258 13526.385666 13868.468357 11879.123642 6404.509590 5506.586543 8157.105783 5701.967413 19722.720832 17876.883955 15185.267103 15415.875574 11071.702166 13621.707467 9521.742726 8198.587738 6436.091069 7605.386600 2671.308579 18326.976949 16712.305798 15468.769916 14803.194837 14894.199043 12610.567574 10723.339346 13102.830627 9447.743682 5846.126056 3117.701185 16723.775671 19344.233141 12968.443327 14797.444909 11364.496292 13171.305389 11580.390984 10850.273497 6433.444509 909.176833 3283.856800 19048.053204 17576.718604 15819.092007 14687.432984 13696.528846 11207.969841 9284.741957 9590.043407 12381.119681 7903.846876 4683.645038 15473.029293 17307.513975 14872.617953 18119.689987 12189.842360 14445.685043 9945.156177 13880.764333 11735.656104 4944.426933 5946.673999 17714.177415 17173.484148 17100.064839 17735.084565 18304.683723 13564.579413 12214.456310 13969.805983 13241.270883 5524.245024 10374.791234 20788.772242 15536.978450 16527.367236 17617.665924 17106.638927 13542.484494 11578.150186 13899.228885 10706.053018 9056.161311 2136.557754 19138.745243 17125.838292 15084.223689 13471.073809 14688.790115 16805.493628 11431.797804 13761.705810 4370.546463 6154.007965 9650.778281 19108.813290 15837.666696 19891.448032 17036.881360 13002.175899 12401.969813 9611.931630 9894.114375 6609.518666 9717.173080 5295.693746 18295.200587 14139.759456 17071.961195 12101.284683 12493.259531 13828.770512 13462.128010 9556.041893 6683.003178 9333.420608 1844.045721 19330.725682 19587.851592 18190.610625 16355.255724 15897.768723 10414.187685 11076.802019 13082.824201 8471.089877 5042.540954 11930.912095 17011.114466 14350.513110 15739.736624 16915.590928 16352.626131 11244.444296 16470.419642 6365.292136 8515.602709 9108.395985 5740.702189 19508.095229 21127.135624 20491.005884 17895.522171 14489.286001 20176.890169 14634.094666 9481.418881 10675.070389 8813.484072 7697.599130 17851.299451 18252.067040 16866.422510 14137.914145 15999.566786 13491.802748 16470.381599 18167.923332 8895.259330 9113.087774 3498.665567 16732.634866 21376.746183 20658.362807 17136.364643 12505.892604 18932.801434 14660.982527 19031.162376 18737.322097 14017.578660 13269.895408 9566.481220 8251.068211 -4346.416368 16887.401343 12094.572548 16390.492299 16594.587268 8252.648752 20726.832260 11553.742667 11171.717262 16008.804432 6919.046598 10072.439814 9148.830066 4443.314391 12497.582594 8784.041110 11387.939872 12335.904629 6998.103529 8958.059341 8050.485105 10181.151922 9285.826865 12508.045748 7827.798585 4565.380828 6258.540386 4152.665219 4932.457885 11564.524915 7947.996718 10026.675473 10949.848774 10033.305938 9625.388087 11849.772272 11667.680589 5979.654276 13065.827277 11824.691677 7850.042156 8041.495886 2670.848202 12931.438507 15578.024041 8654.660456 7832.205830 13177.093321 9436.373812 11379.049940 9830.785682 9360.595329 6512.229709 7503.196499 6123.396931 4397.018445 4911.781683 8433.631864 14977.561562 9171.395401 16269.494617 11768.283981 12369.705235 14698.139878 8234.168537 8102.209450 8326.936083 6937.426896 6654.954860 8604.829776 2620.724205 17999.037195 4254.242029 8494.116950 9574.217569 4786.252315 12411.379939 10429.924173 11890.561253 6389.779815 5949.109839 5319.671866 5430.921790 4144.797104 4594.960798 8140.806989 7584.791923 9782.499819 13149.227942 8198.772926 11920.608885 4779.188371 3716.559965 4581.599757 6454.741194 8694.668571 5696.671092 4733.782046 6691.167594 11306.188541 12375.970663 7770.228582 3831.866197 8391.249346 4458.664083 7005.135260 4918.588694 3974.501637 8048.837117 5743.692945 5770.009639 3663.231359 2791.064422 4292.350762 7559.192215 10078.172325 6390.449788 9729.396527 2494.144964 7564.894724 6192.584173 10673.945639 2401.366572 3736.864911 3910.222536 3796.071294 2327.311199 5248.553834 8297.119194 17014.494195 13375.637528 3690.812263 6301.309598 3061.222560 10088.183769 6764.597138 8141.526241 10018.619202 6582.046151 3774.311511 3994.823760 10038.259924 3431.966363 8400.758513 17051.394665 4791.450013 10556.847020 1428.409456 10449.133638 4801.926848 6182.047117 7105.484784 12893.776142 1433.469696 4875.419651 4554.797134 -334.346708 609.130685 9765.870988 4986.910722 3290.815341 6301.794917 14103.884569 15804.197932 6535.436291 3931.745786 4138.124694 3102.037296 1815.437842 2202.068534 6592.817792 4616.826253 4206.837175 7627.228627 2774.162532 4623.289670 7881.959807 2715.884840 10835.962888 6214.624165 1641.424974 3793.714715 3836.474845 2594.297766 2911.796466 872.683520 4437.705150 2569.947310 1886.295034 8605.600671 3483.915472 2461.193654 1653.739969 3994.860381 2285.637737 2557.529774 3894.339830
</DataArray>
<DataArray type="Float64" Name="Velocity" NumberOfComponents="3" format="ascii">