<VTKFile type="PolyData">
<PolyData>
<Piece NumberOfPoints="1945" NumberOfVerts="1945" NumberOfLines="0" NumberOfStrips="0" NumberOfPolys="0">
<PointData>
<DataArray type="Float64" Name="Pressure" format="ascii">
 27254.582875 22546.854155 22471.480344 17749.278613 22740.939871 21510.783994 19188.402000 16370.863822 16767.587322 15280.673874 17920.771580 16505.420402 18125.653277 15880.798229 18920.219880 18023.166432 17106.398228 15264.089685 16374.773331 14420.685676 16676.521323 13647.592988 18936.063345 17683.760506 18800.001212 19495.754298 16148.588420 15915.451015 16417.287634 16384.941279 15502.059178 16041.029431 16433.514842 17054.471383 16868.220773 18701.019286 14074.583088 14062.884044 15035.885035 15629.842354 15052.108527 14947.983680 15946.815977 15979.910136 14227.041715 13589.697046 14865.367482 16591.614008 12408.938986 11491.731225 13695.504142 14577.867068 14627.740656 15812.671227 14039.953693 15059.413468 13677.874766 13854.158569 15180.468076 14864.060360 15270.602349 15904.682643 15003.812595 14992.806742 15115.148112 14748.860485 16664.947855 16405.180562 16971.802443 16416.450277 16896.240730 16489.659618 17534.350281 17097.192956 17442.744585 17492.146770 15618.381968 14887.680341 16934.443749 17115.672941 16947.454329 16566.667599 18108.545031 18209.332858 18711.155514 18793.221216 18921.663277 19376.556500 18895.784231 19222.303789 19457.593406 19541.642406 21575.864447 21757.286591 22844.597189 23053.250209 23083.105313 22564.219681 24335.167804 22864.739504 27439.697783 25982.205695 28090.448711 26081.644772 28099.481393 27455.141956 24487.825700 23122.469409 22963.437617 21947.947653 25783.816292 25069.535752 28018.241327 27762.447978 29045.033731 29293.420494 29143.133542 29073.776594 30253.229897 30315.297237 30571.370193 32206.286659 32205.445103 33750.139214 31472.869268 31304.615146 32572.341910 32392.710557 31440.948787 29527.006399 32149.491490 30401.452223 33431.327028 32728.895405 32466.161282 31274.071098 32976.049280 29603.447708 34212.013691 31473.391989 31367.095104 28600.357863 28755.775789 26512.753811 28195.083632 27531.374151 26674.747690 24846.548405 27766.875388 26297.294881 25781.926392 24995.362350 25510.236607 25546.935110 24414.475788 24095.104123 24470.991587 23400.228596 24723.447336 24472.134400 25422.324840 25740.613634 22897.673892 23218.825882 24314.156808 24857.273278 24781.442317 25063.477025 25207.415363 26439.604781 24250.006844 24698.911051 24441.103863 25068.660818 24165.225335 23784.382270 24723.620587 24596.403672 24826.032114 25915.256844 24388.540363 25778.691554 22702.164608 23695.711982 22688.882211 23286.280860 23130.198200 23511.596250 23947.062994 24296.559751 22677.573601 22031.967900 22175.362467 22437.426434 20334.348917 20059.931149 20653.693323 21555.218694 19861.184052 21219.725862 20503.056912 21201.348332 20047.490101 20137.190083 19929.318227 20483.426585 16123.980692 14031.576484 16831.904415 14773.376883 18863.042363 17017.271541 16582.378892 15977.243529 14047.979220 13086.770658 11419.656837 8168.787126 5021.849003 3080.558440 5458.448445 4208.665306 -3600.340909 -10137.287187 -4875.142324 2978.373477 1183.417507 -1487.447007 -4820.355119 -7251.711773 -7735.833986 -7724.214410 -7533.679690 -7242.084471 -6893.963578 -6512.506117 -6110.599987 -5696.554616 -5276.677756 -4856.366076 -4440.525075 -4033.679357 -3639.942043 -3262.931552 -2905.684972 -2570.594311 -2259.376991 -1973.082241 -1712.129197 -1476.369592 -1265.166948 -1077.484481 -911.975002 -767.067456 -641.046257 -532.121036 -438.486238 -358.374654 -290.132791 -232.483451 -186.108367 15149.261114 13543.398572 13552.924726 13899.247697 9293.500503 10525.925149 10655.477229 5587.908689 2130.559323 -864.414270 2700.712088 9529.785135 184.547320 -19213.200614 -7233.660689 1978.347361 -395.904620 -4583.403903 -6229.223428 -7257.216452 -7653.680844 -7679.271422 -7508.931644 -7228.621208 -6886.511702 -6508.347561 -6108.445723 -5695.812998 -5277.070853 -4857.746475 -4442.790473 -4036.733619 -3643.679518 -3267.233683 -2910.423296 -2575.636310 -2264.592572 -1978.349558 -1717.339166 -1481.428878 -1269.999479 -1082.031699 -916.195114 -770.933966 -644.545991 -535.251615 -441.251481 -360.767528 -292.040691 -233.114600 -180.401632 15284.398744 14451.513311 15367.393409 15519.246028 15580.126720 10774.657822 9503.016877 9987.226293 8049.030725 6953.316348 7304.749181 6986.630932 6091.455909 8176.863204 14684.379630 8834.103460 10115.618287 12192.105255 8093.670054 6718.092212 6040.541464 18095.961402 15447.195978 5002.505070 22489.151993 12252.789889 2896.616546 4858.186697 12227.255223 3672.798466 515.578910 299.193135 187.893553 122.221083 81.298101 55.231014 38.343605 27.163427 19.562962 14.253086 10.454066 7.687091 5.648668 4.138134 3.016878 2.185477 1.570605 1.117157 0.783146 0.535586 0.344372 15471.025989 16415.377880 17223.015955 17084.014003 16086.058543 13840.431941 13182.218586 12887.693037 12093.125001 11517.660966 11540.653019 11615.470294 11330.816744 11691.390545 11515.505563 10687.859901 10598.230346 10428.901081 10149.049134 10757.856606 12153.947991 13022.155959 11437.809636 9363.480565 7929.481525 5223.118493 3318.754012 2431.434856 1746.057643 1030.705618 557.792000 323.566076 199.766526 128.435134 84.856744 57.376556 39.664820 27.987411 20.086022 14.594079 10.683790 7.847100 5.763341 4.222045 3.079070 2.231843 1.605185 1.142884 0.802469 0.552296 0.373327 -155.021701 -141.021515 -145.981224 -133.144466 -122.382220 -115.691616 -95.540867 -94.881672 -75.717532 -75.921043 -59.946998 -60.241432 -47.278356 -47.541499 -37.121094 -37.340212 -29.013336 -29.192552 -22.573067 -22.718472 -17.482568 -17.599830 -13.478715 -13.572757 -10.344921 -10.419932 -7.904015 -7.963526 -6.011964 -6.058929 -4.552386 -4.589257 -3.431800 -3.460595 -2.575555 -2.597928 -1.924384 -1.941679 -1.431499 -1.444801 -1.060169 -1.070348 -0.781718 -0.789469 -0.573883 -0.579755 -0.419471 -0.423898 -0.305276 -0.308597 -0.221209 -0.223688 -0.159603 -0.161445 -0.114660 -0.116022 -0.082022 -0.083024 -0.058425 -0.059159 -0.041441 -0.041976 -0.029271 -0.029659 -0.020588 -0.020868 -0.014421 -0.014622 -0.010059 -0.010203 -0.006988 -0.007090 -0.004834 -0.004907 -0.003331 -0.003382 -0.002286 -0.002322 -0.001562 -0.001587 -0.001063 -0.001081 -0.000721 -0.000733 -0.000487 -0.000495 -0.000328 -0.000333 -0.000219 -0.000223 -0.000147 -0.000149 -0.000097 -0.000099 -0.000065 -0.000066 -0.000043 -0.000043 -0.000028 -0.000029 -0.000018 -0.000019 -0.000012 -0.000012 -0.000008 -0.000008 -0.000005 -0.000005 -0.000003 -0.000003 -0.000002 -0.000002 -0.000001 -0.000001 -0.000001 -0.000001 -0.000001 -0.000001 -0.000000 -0.000000 -0.000000 -0.000000 -0.000000 -0.000000 -0.000000 -0.000000 -0.000000 -0.000000 -0.000000 -0.000000 -0.000000 -0.000000 -0.000000 -0.000000 -0.000000 -0.000000 -0.000000 -0.000000 -0.000000 -0.000000 -0.000000 -0.000000 -0.000000 -0.000000 -0.000001 -0.000001 -0.000001 -0.000001 -0.000002 -0.000002 -0.000003 -0.000003 -0.000005 -0.000005 -0.000008 -0.000008 -0.000013 -0.000013 -0.000020 -0.000020 -0.000030 -0.000031 -0.000045 -0.000046 -0.000067 -0.000068 -0.000098 -0.000099 -0.000140 -0.000142 -0.000198 -0.000199 -0.000272 -0.000274 -0.000364 -0.000365 -0.000471 -0.000472 -0.000583 -0.000582 -0.000676 -0.000672 -0.000705 -0.000694 -0.000584 -0.000562 -0.000169 -0.000127 0.000780 0.000854 0.002647 0.002771 0.006032 0.006234 0.011853 0.012170 0.021491 0.021973 0.037004 0.037673 0.061504 0.062101 0.100183 0.098565 0.166143 0.146357 0.233759 0.192906 0.265083 0.219768 14518.392206 15492.281070 11513.125036 20036.754660 17251.203062 9974.100748 14927.363979 11547.611644 13536.899345 13855.443718 12106.455320 15538.690445 15673.226981 13929.484369 14388.976691 11132.592019 7629.577622 10436.700783 8795.874101 9939.595374 14198.108312 11013.164982 14310.445849 15565.676010 15396.832826 15320.249733 14758.137758 14070.692920 7202.111773 13239.137046 10246.209631 5130.801118 19512.781346 14225.553557 13991.130751 15810.579354 10516.503384 11779.839157 15029.396737 11976.330588 4685.476061 13775.957688 8538.003838 11890.443303 11280.110052 7819.081028 14176.156865 13781.557278 15162.088948 14274.382263 12414.906616 11937.359515 7515.132920 11034.560958 10823.099652 11721.110905 15356.361783 17363.750386 16390.887854 13731.265052 9857.942593 14622.985014 13480.594871 9916.119308 6143.611910 13710.687936 11519.921023 14220.049870 16374.624108 14541.464194 13919.905681 11269.793379 12216.340645 11489.112346 10231.877911 12289.518843 4803.705744 12673.984793 14562.275326 14181.670361 14429.140721 17317.871996 8708.405690 9438.673344 11223.643491 11569.089727 7876.707982 5626.972029 14681.809040 14395.872090 11677.612368 12304.400060 13548.424440 12455.459495 10485.849568 12140.369894 11809.484217 7961.301960 9335.016444 12060.533660 12315.714187 13210.929249 14630.232129 8860.344736 12446.943034 8727.312236 9434.053698 11019.066347 4459.643492 9314.349338 13421.744000 11553.676222 16184.659587 6097.511975 13290.313517 9754.920049 10552.799839 7945.042444 6054.586257 5864.928911 3002.302184 12548.270210 12320.015222 11202.910516 13110.625729 8093.418132 12930.963779 5953.567805 10147.955299 10964.164343 9129.361113 7795.764382 14781.119080 12950.935417 13193.923711 11207.210429 9415.156411 10771.991974 11296.475714 8837.793674 11833.035274 10469.583646 8775.098714 15938.161430 12843.567080 15266.153803 14853.896845 11955.749619 12632.909268 9983.789722 9078.717790 10640.546269 3185.040612 5460.899974 13981.542110 13232.035164 14742.033178 14080.031914 12652.130652 13225.195141 9624.608265 9498.690214 5382.057311 4227.561297 2717.134542 16128.944748 14009.621365 14860.633101 14243.940905 6821.056340 7268.539096 8728.118467 7770.155363 516.863101 341.108373 1490.136253 14731.945108 15991.836947 13447.766539 15520.770196 13810.736173 11452.419377 10063.760879 10830.658316 6221.378510 693.785011 56.588823 16224.226738 13245.680865 13719.579281 11029.029597 8746.602656 5668.294605 6777.514252 754.731323 1291.511588 1611.330118 2632.162671 15509.961628 13412.596404 13917.200298 12838.243891 12114.466053 6741.110466 7189.430905 3306.740743 7601.188054 5031.240427 1967.872069 17396.247359 16190.224947 13956.263862 10870.598883 9863.849428 7401.586862 6024.957878 6817.207903 3121.598149 2141.063832 1666.589367 17823.839403 16415.296783 17130.959901 14973.032869 9088.631332 4115.591193 6378.596479 1306.878255 -101.072155 2468.296690 1192.583258 16005.883612 16193.028104 15136.734310 11891.430173 14610.064676 2433.493471 3174.738508 4893.863519 4966.500557 6285.923172 2679.622704 18645.072170 17974.667257 14006.601007 12712.228336 11262.714623 10821.099498 2836.394942 3525.745183 1157.784792 3434.423939 1991.183939 18240.533143 18566.710168 15372.671126 12116.158252 7672.893965 9965.224160 10547.195814 6957.490329 4994.504589 3783.480830 2896.899097 19380.785474 16224.450395 14231.698477 11280.253047 9678.688268 11026.954296 10680.996828 8002.704743 11066.479582 4489.578807 3513.822932 19467.222568 18353.558304 16370.306637 17030.513465 15423.385472 10706.976690 10767.003836 6535.941875 7659.401607 7790.836453 2672.660162 19663.066048 20052.533343 16958.423789 15919.959770 14851.055310 6496.226159 14582.538387 2638.092218 2127.402992 1301.886828 8673.024432 19629.988331 17443.940631 14333.917990 15254.350482 15913.533453 14688.207406 10196.853073 13681.617594 5971.183927 1261.235388 7820.117667 19639.452735 21047.835117 14770.090807 14803.902120 20128.302902 11993.651622 4421.148092 9075.241921 7751.134911 8511.102885 4870.714719 21898.478072 19631.347433 16831.667833 11318.184196 14314.650958 10238.195130 15668.295842 7097.107963 10955.849823 7492.701610 3480.008067 20603.728886 20832.692191 21179.132675 19079.113370 14200.277299 8062.305302 10924.809197 10056.188169 8217.710611 6428.101262 3701.714482 23245.163185 20939.911424 15429.331570 18131.207709 19046.979317 13818.558201 13842.456333 11190.101644 12201.126785 8032.756227 2647.529472 20614.473192 12684.522102 21281.404274 21144.624331 17513.726906 14873.634914 9921.202562 12108.533109 3636.710651 5998.583416 5765.972780 24015.725515 20771.860803 19394.140051 21153.275518 18635.610445 16890.383120 15047.280214 11667.705566 7740.828322 2512.910059 5275.645278 23721.106733 20579.375371 21970.709400 20530.190064 19646.635896 17804.394434 16103.620120 8555.737468 7302.568620 5847.918317 2733.303868 27276.777772 25644.085962 21529.594899 20097.365089 20934.018493 16224.843190 14284.194598 18855.638970 6578.587269 1759.324627 3475.665843 24675.165068 23124.058898 20784.596609 22038.922564 19344.550265 21309.082987 15948.704025 15357.530342 9861.254906 7270.721126 2053.721713 26215.416117 21959.503224 23413.706994 24618.322941 22622.499950 17333.978849 17081.659585 15642.723703 12246.416667 2752.550522 6257.419406 24222.657510 25227.460316 24504.638026 21296.861119 20396.259732 14699.989069 11419.393615 7420.206156 11007.017212 4105.433312 1080.410838 24856.397691 22262.964256 22897.889422 19031.771303 10551.907899 15466.409186 10637.295647 9909.619705 4532.837251 8291.283207 6156.730855 28215.618095 26331.986169 26132.352804 24728.865814 22953.536294 18364.970173 10480.180491 8289.775379 11482.277939 661.778386 7097.155714 27523.469838 24771.799956 27505.345115 22180.940327 20677.436923 15102.667528 16175.750554 9971.653645 8977.660713 7701.465637 7493.712906 30262.154911 26806.304076 21981.014763 23581.772207 21755.652058 15321.593955 15204.392842 15237.421639 4320.865569 8730.102406 7035.165125 27960.306383 25699.464770 28761.887391 27834.277883 20344.057134 17576.133227 11393.977605 8539.129356 6089.597261 3892.043477 10881.671978 33708.950772 28151.370599 26066.191256 22985.431890 17300.581996 18904.492623 11084.199753 15705.973550 6622.680291 9868.812220 2787.758983 28195.913227 27503.009659 26637.598726 14335.970626 11202.100217 13219.868581 11093.147895 11292.786905 6895.416330 4368.966343 1406.197042 27526.785077 25232.695337 22522.664039 24841.537114 12888.100867 16317.876669 15957.210353 4247.984645 10264.610023 10801.132747 3573.537669 32216.995409 29341.792021 25112.373079 26637.478785 19392.756926 19421.565457 9402.481280 18940.215396 10430.916774 3306.619034 -404.153393 27531.038874 26491.717726 25924.705986 20361.261218 17554.739976 22001.332696 21078.740097 12258.569044 8444.971110 2760.173608 483.759571 29980.693424 24355.412978 26162.979716 19768.784749 23229.531561 16965.540331 17991.848369 15542.548195 12432.926228 5669.161653 1603.887415 29418.124544 26122.141319 25987.684545 22996.232159 20293.791005 18514.351519 14474.531075 14098.181062 10887.296225 6751.926115 36.986554 28171.077255 27975.030178 24030.003218 26008.403308 19795.225526 15646.717978 14833.097433 13937.363992 11149.798113 6465.475589 -27.515447 27566.044471 26490.119014 21955.332380 24913.967642 22012.102494 18406.069908 14862.172922 11327.417560 12600.308728 9839.206963 2965.938602 31226.786281 26932.494221 28895.084632 23706.797163 18475.261294 19450.113656 13306.739162 10765.122064 7165.702014 4079.720979 1939.936973 28538.682912 26290.145812 22503.047145 22735.566716 16154.848131 9861.375298 9328.594378 11405.621989 6285.522527 3427.443897 9353.467702 26307.992585 26624.738000 27092.369569 23371.063957 16253.320739 14123.122550 10219.805115 7679.628283 7232.398415 2905.262166 502.350763 29562.711094 22014.461282 23443.648662 19838.292259 11280.280080 13851.328628 10207.575369 8496.715128 8174.368029 2402.344087 5873.380755 25811.741655 24295.602563 18585.166424 17159.743658 16887.421440 12866.540152 12708.625810 11657.892754 10111.625769 6356.703237 4577.139260 27756.853470 21745.655077 19956.492159 17685.489907 16831.414228 13897.540741 13609.919123 13140.952476 9112.760051 3864.299644 2936.491700 26359.843308 20808.869418 23360.649595 18289.223406 17616.622742 18356.888740 13685.467117 10408.604815 6716.078433 6203.206318 2912.980284 23815.722652 22418.409800 21867.716290 19231.093147 17799.131037 16170.497338 8748.573928 5932.298329 6252.885967 4558.012483 4900.580793 25278.869203 20848.839713 20885.051560 18349.827472 17758.627043 14783.729998 10186.067493 7981.404976 6130.580038 3681.578139 799.560267 25114.725384 24932.903585 21349.391180 18462.676733 15578.793091 14415.528671 15248.202068 7981.959448 3345.115208 3415.458627 4936.615541 25816.076348 22419.365548 21649.358797 18699.152118 19821.690705 15629.628139 10237.352439 11358.003243 3331.726196 1481.511144 -193.562490 23118.017334 20774.925306 22979.113274 18509.153435 15581.659444 15196.880182 10137.683378 10134.768629 7981.236899 1000.996042 5631.483223 22895.363843 22726.321916 20977.004422 17118.449763 15310.183121 13097.786654 10818.581024 8730.961000 6670.480970 2358.430205 4527.953945 24442.930449 22739.231536 21911.901350 20017.259336 13849.706829 14052.148789 12492.874838 4265.572049 2802.732846 2250.003358 724.062053 22743.353223 21867.944217 20330.208817 20289.795222 13354.007149 9022.277626 7688.235733 6913.584457 2875.303266 2374.013544 862.362189 22332.323545 24598.276400 19139.931711 17301.767877 13399.978102 8395.107753 8834.399550 5878.348993 4512.381526 4655.105075 -3495.199986 25433.101513 20466.169905 21658.365285 17738.505801 17338.449874 9720.124578 9663.115683 6265.500633 4888.089091 3680.392413 6963.654260 23222.989038 23903.127808 23173.461313 17735.289231 14095.218843 11671.799803 3812.335324 5301.208931 5045.691984 4390.732399 -448.276800 23736.196118 21092.790043 19931.734858 21310.774143 15451.616445 12163.936260 6453.518857 5540.913822 2726.594571 2188.384784 2521.429644 23705.976321 23144.912433 23542.979424 19391.802344 11583.591775 9698.508749 7267.170543 2263.164554 2093.387010 2179.221608 508.704375 23597.610978 22372.172018 21182.934148 17220.057079 14921.759397 10763.393620 7272.898330 2844.360743 3312.083317 -526.808932 -2459.048844 25106.028403 22629.651122 19534.454104 14827.565402 17285.769758 8163.979093 8125.642845 6237.997798 8545.095463 5069.961179 14922.470068 21749.537148 20719.478230 16695.901827 19230.900185 16151.005716 8809.719419 10425.837307 3477.391740 7254.429536 4034.994272 7872.259114 23924.389813 21583.636785 22731.265794 18540.539977 12454.121649 12320.445377 5674.472040 3159.955763 5604.255421 8820.084488 1706.453059 21813.650371 22815.382520 21480.123697 16075.874100 15116.902805 9401.531129 6084.675298 3825.922847 5971.194030 4109.945737 1242.248886 23423.831033 20700.935370 21080.349314 17845.137677 14839.297180 13754.786300 7399.632262 7684.304684 5574.869270 6677.111199 4585.228434 21767.881526 22768.923006 17053.811351 19588.241661 13448.205399 11394.352354 6486.084830 7324.982632 6771.352995 7217.654124 10553.197003 25657.123722 19852.458891 22766.246963 13546.732252 14460.213174 9527.602706 5204.546685 7190.975801 5894.230551 3145.162706 7731.781722 21275.687974 20330.649886 19585.388532 18841.363327 11479.279807 9027.309384 7498.554142 6226.338349 6314.395228 6846.891473 -2332.377189 23637.402051 23183.724260 16947.373643 17088.290529 13550.389528 11384.127260 8610.927569 7110.035086 6668.372322 6759.303140 12167.853592 20943.777446 15927.049849 17683.099505 17130.023197 13302.351822 11182.325313 7401.565873 5321.948415 7789.687792 7075.075283 10244.285129 21171.243533 20401.790513 16570.056000 13341.928131 12520.982987 8079.502839 9626.449402 7870.612711 4948.495087 5919.982098 217.880028 23055.674274 19650.694169 17783.430951 15562.217611 11459.853630 9731.439291 6978.579633 8094.468266 10964.210808 2510.411492 1690.186352 21954.541343 17365.361886 17726.402428 13465.298870 12756.477029 8355.469996 9011.765038 5828.309878 9472.977152 1734.919897 3065.186309 21833.007617 20192.606491 15071.650189 14029.697613 8895.564920 9767.229279 5972.656349 7077.281314 6969.721429 7934.962027 -16762.666795 23561.569622 20567.029154 21740.687742 13745.346392 11918.530418 7139.281830 7856.544485 5437.821389 7898.975540 7205.531061 5695.681809 19991.304219 18943.403463 15210.632372 13414.608961 9714.343425 12427.304354 7223.087825 7579.366457 6616.917751 2992.327900 9821.588507 20616.176869 19945.375701 17196.144303 15798.518616 11605.944840 12973.444965 6223.771511 7447.937658 8877.313685 7088.404944 24975.199755 21579.093469 21249.605541 12763.011001 18019.930729 8364.407249 12737.404385 7277.451014 4149.216131 5699.134280 2236.073168 10869.087627 19457.618927 18407.395701 16231.679744 15906.761888 12128.558490 8609.325256 8310.909696 7108.888401 5951.642476 634.431429 8535.491774 18572.979834 17723.454677 16773.534224 16868.196393 10902.249051 10600.854013 8900.430652 7793.862096 5105.275497 7550.401060 -15606.754041 21289.228191 13866.341807 17964.243778 7904.968772 11573.468507 10818.682540 7265.430425 8401.036922 7063.884476 7976.277575 6629.495530 19991.752714 18483.359193 16898.372387 12673.351931 10483.543473 9964.600204 8619.375024 7770.430061 6250.970585 1048.214784 21444.607465 17218.839573 18892.309116 10810.023216 7328.914452 12020.588480 5962.688471 7661.123395 3335.976745 6149.579280 7722.663058 6751.274141 15750.905731 19700.541620 15414.655919 14391.676219 8495.393418 10678.420865 9008.138436 8037.870184 6745.687049 6778.488441 6880.793059 18493.668931 15661.845464 10963.882676 13489.569578 15028.402578 6091.654490 11038.763465 5246.800689 5455.061143 6476.301259 5803.329333 15093.208981 17760.324189 18279.027659 16251.912723 7073.119127 13520.974125 6436.208173 6670.383988 6457.070594 5843.333286 16296.821441 20209.405008 18854.169716 11043.403473 15070.300596 9520.198930 8606.706600 15780.064909 13083.566842 7363.085497 5272.625537 6946.649234 9872.644957 17036.507029 17571.211317 10599.402021 3011.829676 12184.006845 11346.779521 8502.074569 7477.481476 8950.306884 5615.214868 8086.378530 -16654.577891 936.430218 9477.942189 6767.878284 11336.422069 14603.648160 7017.670743 13760.414682 11509.244448 9498.626804 11653.248077 -1027.660075 -5585.164864 16754.190551 7529.834585 -616.007727 6360.457881 10144.526634 8228.701743 6894.189187 7421.146293 1040.826838 3593.204029 8707.643644 8145.332504 4181.878385 3785.092548 4775.148811 -1476.692401 -6037.455133 9285.244668 7587.189676 9263.385498 9107.769547 5422.471361 6137.620051 9361.841474 6087.047276 3931.289656 9564.780541 8290.835892 6047.230549 12103.037550 -8945.179086 9239.294180 12307.244968 7019.549871 5946.478283 10828.016512 6284.696068 4801.722761 8732.065486 4164.748273 2214.794697 9523.837760 4537.427490 3861.674746 -11017.128423 10289.572145 8845.341023 4736.128925 13412.074536 10884.592149 7177.297477 8935.214490 5204.945247 3300.429531 5900.668183 6343.498952 1629.526973 4317.863621 3659.121747 14967.892384 4582.699688 6216.739438 7262.640457 2531.421725 5950.216312 6763.439811 5972.736840 3886.757944 4985.993148 3862.254658 1775.637037 2400.760305 -13004.171931 4249.813713 9192.548657 7302.955669 8775.268538 7117.472510 10461.884852 5321.772452 3286.159307 2207.413953 1829.375356 4306.425907 1950.748543 1755.519296 630.202601 10357.491222 8742.184751 3803.984287 4874.378147 7664.992767 1758.207976 4211.265048 3163.377009 488.972385 5262.812971 949.677009 4363.417867 442.517803 2007.252016 6116.836531 4484.201075 5821.549388 5959.359797 5726.607569 2385.936413 7388.532238 4465.543575 6227.597799 2801.417063 4745.108787 2571.888549 2117.955870 3332.229176 2438.581429 6839.529740 10036.568873 3907.882456 2173.548249 3456.023030 4337.681371 4733.099417 5624.327012 4783.381287 5974.320927 4706.727736 2818.729867 3066.461654 9120.905440 53.786271 5506.352967 11411.468446 4899.201087 5680.238805 2293.427838 6538.936717 2574.048373 4081.770858 2206.833897 5968.748562 525.272577 499.163719 3551.695011 1906.124729 1158.990772 2295.063853 528.826231 4285.983968 3850.880077 8278.588635 9524.640171 6123.314477 2264.806456 2645.455847 645.766340 1416.101481 1184.112251 2293.652410 3320.830651 -1280.559838 5867.068755 2037.860537 3196.289631 3725.014230 3069.881911 8950.073860 2510.139148 843.491611 2204.921421 1917.172474 1246.212037 4135.077426 1482.091671 3101.110960 1140.003618 818.464532 6336.093363 2880.170947 1153.259240 2422.166804 1089.445860 2035.929630 1056.938459 808.580846
</DataArray>
<DataArray type="Float64" Name="Velocity" NumberOfComponents="3" format="ascii">