<VTKFile type="PolyData">
<PolyData>
<Piece NumberOfPoints="1945" NumberOfVerts="1945" NumberOfLines="0" NumberOfStrips="0" NumberOfPolys="0">
<PointData>
<DataArray type="Float64" Name="Pressure" format="ascii">
 27413.836905 26957.218085 25252.249562 28182.207270 25299.633873 30995.300904 27858.242926 29332.402082 30592.467237 28917.412903 30043.282326 27624.328817 28543.174594 29881.515215 26251.369972 27998.726142 26494.244066 27357.992349 26495.753159 27952.588034 25796.223068 28399.997866 25180.861383 26212.211698 25801.316412 26675.633645 25700.874638 26970.299278 24966.413392 25867.176683 24839.841084 24948.266656 25395.329732 24992.885756 24991.320493 24945.120795 24414.694799 24973.463794 24233.413834 24309.737416 24135.877882 24546.605535 22834.011204 23622.614890 22965.743902 25220.322823 23853.201032 24694.059660 24975.669547 25834.773895 24601.590719 25383.560762 25265.082530 26384.887592 24931.205650 24071.015250 24451.580388 24029.820858 21908.427517 23310.338904 22736.420548 23603.428292 22959.538430 22925.403314 20784.160407 21370.403918 19906.305316 21834.635694 20708.328221 22160.394560 19951.562501 20198.429068 20825.139248 21104.772232 19233.392462 20700.875312 19681.406105 22013.063815 19128.547377 20265.298843 21032.495314 21286.117307 23206.795133 21334.401468 20944.467001 20821.251748 20561.397325 20925.288684 19761.349596 20225.525992 18333.426615 18662.953945 18029.628098 16833.034924 19222.410138 17818.674596 19474.431012 17857.482963 21570.230269 19916.945467 18294.711037 19372.148148 16271.355802 17150.755815 16483.593603 17760.753944 17815.732644 17925.063978 17869.394551 17911.423995 19247.478068 18832.652066 18596.979915 17422.862430 17661.245776 17735.720714 16756.792055 18007.016571 16085.101887 17073.807117 15696.648508 17336.993831 14561.116934 15744.814785 15246.955556 16356.741684 16629.942976 17128.376635 16055.058632 15700.064644 17130.756667 16949.897326 16322.807196 16175.975507 17085.892360 17198.932358 16509.149186 15986.623944 17837.095952 16808.890615 16838.984934 17168.197692 16693.185609 17629.479969 14699.407157 15558.677013 14263.474225 15451.506630 13427.394844 14511.459556 14639.836741 15205.474613 14713.663427 15166.131811 14750.417732 15403.281277 14986.422018 15812.797022 14748.945473 15430.462992 15312.393630 15868.919821 14422.930683 15109.362356 14503.737422 14670.305684 15841.651095 14738.160996 15229.004947 14294.727145 14653.343238 14889.182550 14429.505483 14880.334248 14196.962772 15078.836342 14022.995851 14946.303052 14043.541469 14388.612461 14717.498590 15134.570248 15447.035402 15093.932295 15991.667749 14961.262764 16174.083720 15267.884661 16347.384912 14569.741084 15432.611623 14879.576603 14151.300021 14599.764958 13317.166071 13669.841022 13702.079323 14720.579614 13456.170662 14252.708632 13513.520612 14095.856229 13402.247535 14312.198412 14962.050969 14975.763721 14822.990827 13871.614354 14687.908225 13424.694034 30937.933110 30455.971356 27116.556443 25864.533943 25154.173763 22931.673844 21265.325041 20490.541745 18969.197044 18422.918698 16912.235924 14681.348595 13733.310252 12826.169287 11887.445822 11115.280779 10162.492021 9402.371734 9402.382408 9077.170114 8084.027562 6625.838108 4785.690268 2648.697712 576.416769 -989.063877 -2046.665566 -2754.720326 -3210.980174 -3483.381824 -3620.888521 -3659.646954 -3626.672926 -3542.242209 -3421.563023 -3276.015922 -3114.100679 -2942.163239 -2764.948643 -2586.015172 -2408.039691 -2233.039917 -2062.534941 -1897.660979 -1739.255377 -1587.918709 -1444.063789 -1307.968341 -1179.908942 -1060.811880 -956.450700 33770.023392 29398.199219 25967.597859 25373.223234 25554.095102 23099.272597 21341.087856 21004.438783 18418.388976 18936.254543 17736.325437 14391.656333 14029.545262 12884.473767 11135.722142 11093.934844 10699.589904 9062.238510 9299.742126 8407.943846 7148.898418 6875.143925 5993.571190 3552.863559 663.814678 -897.506283 -1976.744494 -2702.643120 -3172.315345 -3454.706134 -3599.728341 -3644.181810 -3615.528716 -3534.366482 -3416.147860 -3272.444752 -3111.907245 -2940.997988 -2764.551001 -2586.191151 -2408.644355 -2233.964080 -2063.695342 -1898.993175 -1740.708545 -1589.451022 -1445.633219 -1309.489829 -1181.000630 -1059.277884 -938.567341 13051.932823 11385.496079 10443.437166 10384.501682 8419.237520 7236.897202 5789.033801 2825.625990 2422.641035 1538.458248 1117.619776 2210.093769 2155.570163 1838.135286 1551.251445 1299.199895 1061.433001 823.945226 584.683447 349.536278 126.974930 -75.670507 -253.848026 -405.897392 -532.383095 -635.216680 -716.891461 -779.952878 -826.705789 -859.104571 -878.759583 -887.002991 -884.973670 -873.696993 -854.147614 -827.291522 -794.108340 -755.597147 -712.769943 -666.636858 -618.186772 -568.366400 -518.060243 -468.073130 -419.116524 -371.799118 -326.621382 -283.970589 -244.095671 -206.938813 -171.067966 13237.451218 12498.839105 11974.480081 11292.636950 9592.248462 8150.852614 6860.888656 5374.969923 4551.018319 3705.362976 2987.770665 2524.543898 2173.411203 1847.329008 1558.487356 1302.720644 1061.995480 823.593140 585.078723 351.424881 130.334777 -71.275374 -248.958398 -400.973516 -527.732885 -630.997638 -713.147302 -776.657804 -823.802078 -856.528510 -876.456130 -884.931822 -883.109674 -872.027749 -852.669665 -826.006550 -793.019832 -754.707802 -712.079884 -666.142577 -617.880706 -568.237010 -518.092461 -468.249072 -419.416382 -372.202366 -327.109506 -284.539209 -244.824470 -208.410044 -176.992370 -881.431934 -846.804552 -852.832918 -819.676338 -780.216996 -761.477158 -690.434991 -688.068381 -614.510342 -614.677177 -546.212802 -546.772225 -484.292558 -484.883618 -428.226200 -428.789671 -377.611435 -378.137677 -332.066496 -332.554405 -291.217363 -291.667531 -254.698590 -255.112131 -222.155888 -222.534196 -193.248510 -193.593181 -167.651192 -167.963968 -145.055607 -145.338333 -125.171394 -125.425979 -107.726797 -107.955181 -92.468959 -92.673080 -79.163920 -79.345693 -67.596359 -67.757650 -57.569125 -57.711738 -48.902596 -49.028255 -41.433899 -41.544241 -35.016034 -35.112598 -29.516917 -29.601141 -24.818384 -24.891604 -20.815174 -20.878621 -17.413903 -17.468705 -14.532059 -14.579245 -12.097024 -12.137524 -10.045130 -10.079785 -8.320768 -8.350330 -6.875547 -6.900689 -5.667508 -5.688827 -4.660398 -4.678422 -3.823004 -3.838197 -3.128543 -3.141313 -2.554111 -2.564814 -2.080187 -2.089132 -1.690185 -1.697639 -1.370061 -1.376256 -1.107959 -1.113093 -0.893902 -0.898145 -0.719519 -0.723016 -0.577809 -0.580684 -0.462935 -0.465292 -0.370043 -0.371970 -0.295109 -0.296680 -0.234806 -0.236084 -0.186392 -0.187429 -0.147614 -0.148452 -0.116621 -0.117297 -0.091900 -0.092443 -0.072215 -0.072650 -0.056557 -0.056903 -0.044100 -0.044374 -0.034169 -0.034384 -0.026206 -0.026371 -0.019744 -0.019868 -0.014385 -0.014472 -0.009776 -0.009829 -0.005589 -0.005611 -0.001504 -0.001494 0.002810 0.002855 0.007716 0.007801 0.013629 0.013759 0.021029 0.021212 0.030482 0.030728 0.042653 0.042972 0.058309 0.058712 0.078320 0.078816 0.103631 0.104225 0.135219 0.135911 0.174011 0.174787 0.220747 0.221579 0.275790 0.276623 0.338840 0.339586 0.408551 0.409077 0.482020 0.482130 0.554118 0.553538 0.616650 0.615013 0.657326 0.654147 0.658512 0.653165 0.595766 0.587468 0.436176 0.423961 0.136493 0.119200 -0.358870 -0.382610 -1.119926 -1.151695 -2.233189 -2.274770 -3.803617 -3.856976 -5.956282 -6.023526 -8.837580 -8.920904 -12.615807 -12.717412 -17.480870 -17.602868 -23.642946 -23.787230 -31.329897 -31.497949 -40.783354 -40.975785 -52.253928 -52.468389 -65.998846 -66.218225 -82.303284 -82.423701 -101.643757 -101.053588 -125.910496 -120.636648 -146.369161 -136.821070 -154.939265 -144.962389 28595.251114 29667.148428 22880.475138 30471.058776 24503.088713 22118.896919 23730.803596 25716.957760 24987.838958 21739.567229 25505.742507 27430.125175 26194.744597 21185.242448 23352.066601 17011.557760 13532.964230 20154.859161 19035.995545 18889.543639 22553.277215 19507.763288 27657.468269 25928.625469 23117.206196 25865.816495 24049.088281 25127.718683 16282.673603 23113.925240 18190.791994 6609.538765 25762.591933 30049.858804 27544.551306 23667.458708 12526.128735 24087.974468 25079.729205 21487.060988 13472.768253 23116.011590 13577.928705 25816.295664 19253.573781 9127.173886 30764.738740 30133.779766 30346.712478 21168.506869 27515.568769 20545.825915 12169.178364 18547.994254 20015.580536 23147.779678 24864.833877 29475.883554 27488.966630 30146.398046 23444.255780 31622.756390 26348.118005 25310.284468 21559.511370 31686.500657 24084.202655 22734.264469 28542.463052 24821.109643 29513.964090 25939.811343 26476.218626 22521.486398 22474.664610 20525.874923 12486.171806 28157.708269 28927.003574 27675.881258 23623.594005 26076.490151 24121.264952 17332.374760 23768.101565 28532.048357 14494.432175 17191.767563 26772.395172 24703.056451 21126.848911 27356.324294 24642.221959 20582.075623 22266.639819 24452.371831 23051.741407 11308.771586 19404.184500 24807.047750 22962.463243 21756.644102 25237.390208 14633.517426 25952.895251 15614.429038 23694.351807 25040.838747 8370.385014 16385.192034 24558.426405 21394.397474 24381.328691 10443.081038 25207.352406 15982.778711 22081.398495 11029.556282 13713.973905 8572.012780 7721.540826 23474.650538 24402.165329 11975.785079 23091.400131 10396.359715 18593.743986 12921.079220 14568.068270 18506.217259 18090.820813 15603.900445 24107.417217 25083.492739 22040.550705 21367.499660 14157.383217 19630.513945 16555.983527 10296.805023 21441.226620 22301.807717 16254.258559 26016.563139 23036.527420 23966.955349 24404.208107 22947.204154 21595.844535 18175.535119 13869.759202 19887.725948 8975.133251 16069.242147 25346.492072 23069.557102 25302.289171 23028.424980 19774.989946 24948.122369 16541.023102 15928.634919 9625.887585 10024.078909 10568.368181 25287.676512 23419.279007 24005.090793 17546.867736 14641.385972 15093.444691 15610.106463 14459.929171 6349.535688 7949.607447 3425.582423 24384.824790 24458.253270 23120.043977 26000.313836 21274.356642 18980.246603 15845.228328 18087.071273 13154.562413 4366.373162 7106.278279 23810.050799 19207.161582 23552.953010 18692.686175 11606.791737 7397.190996 7778.482868 9599.555944 4363.301944 5878.365828 5822.184759 23457.720984 21391.797780 19685.598622 22522.202851 19867.869209 7870.867851 15165.564324 7928.847519 10062.316395 4729.352694 6364.497659 23031.786448 22355.969410 20855.253429 20643.660876 9980.186249 10611.657552 8940.978701 8533.710096 5543.657314 3223.939233 3012.807088 22341.736080 22397.728701 22932.945787 19682.351660 14460.038205 9072.228914 4846.415933 7491.051040 4575.767817 1776.899070 2951.383593 20964.644614 20931.196841 15843.387901 15241.425184 13232.051197 6455.537580 8015.686528 5217.914447 6735.121024 2845.426049 1665.937987 23095.893941 19183.592486 21136.535446 12629.223639 15634.281335 14310.389336 6041.123082 6995.491258 5283.847934 7478.273864 2799.027406 18917.884954 22499.082138 18761.748103 17230.083628 9539.344149 12890.704707 15543.545441 13797.072118 7597.447762 4499.261325 3203.308271 21132.545641 18173.576634 19672.784402 15723.843917 12311.338777 12519.344635 8714.634648 2461.641594 12721.551847 6683.434045 5743.408355 22382.120863 19335.662395 22125.447619 20764.606530 18332.790062 11640.338504 10075.166244 8839.148520 8329.806284 7692.632574 3043.959385 21693.925615 19665.738548 16442.432357 14623.692460 19866.025440 7548.485294 11283.198643 3843.922994 6214.638004 5916.911334 2489.850208 18570.193254 18263.888709 14385.156246 15896.269622 12113.542413 15858.334991 10620.932901 11430.072834 2861.683081 2847.155439 5759.368654 21969.168014 18870.330113 20626.166196 18730.316946 17308.347933 10135.581724 6973.326498 10003.037477 6767.188356 8766.365430 3396.294225 21063.834861 21966.276656 14244.046748 12271.460912 12853.365661 7899.979818 8379.994750 6589.488396 6383.528241 6395.956146 4414.228510 21324.276938 18461.235730 21828.165481 16982.334587 16566.581025 9425.249802 11990.002120 8232.115357 6101.111559 7820.317791 3691.132599 22521.745609 20140.316303 15685.066139 16669.563698 17083.575693 13731.914256 10918.250997 8702.977221 7822.787087 6253.698757 2632.440407 22209.745628 11681.571087 19254.879984 14186.457184 16161.758154 13064.987316 7445.376781 8645.105633 3642.554080 4689.529369 4336.776151 20598.050550 20814.977751 20624.598437 16268.587286 16816.132336 10733.095102 7710.313896 7880.608015 5105.307958 3583.234405 2881.461468 20688.453243 19316.586169 17035.657898 18014.676295 17626.735142 9246.601331 10998.464377 5172.688102 3525.417950 5596.868911 3486.787402 21347.686916 18977.968707 19027.345865 17420.236347 13589.737339 13045.693333 11071.427503 11723.986424 4976.773769 3162.988164 3382.735446 20600.044813 19090.541044 14900.602600 15447.572374 18826.178017 13785.154180 10536.610804 11575.461421 8063.604155 4455.087401 3679.037799 18457.584358 21739.763478 18499.755194 15047.462939 13156.459269 8142.690615 10832.867024 10633.736304 15587.486148 3106.087169 4710.561044 20249.028146 21447.303827 18205.915379 12188.689774 13993.511786 8004.689965 6693.288693 3997.270422 7126.235580 4244.062168 3325.535082 22261.331273 16459.532827 19836.462297 14609.073428 7388.284395 9663.161293 6144.802636 6912.096340 4594.730642 8475.819750 3991.413294 20614.278241 17782.433060 18146.739800 18010.939926 16338.312335 9364.562392 3264.079700 7371.952167 8410.709627 2404.260197 3207.384800 19196.273410 19062.070602 15418.532767 12600.077716 11967.143596 10902.661057 12617.247554 3887.147309 4315.098893 2195.907281 2514.118363 16723.281707 19310.900392 16434.078305 12271.192802 14252.148105 9342.414321 10977.321240 8489.294489 7907.970612 5211.022358 6091.426816 15858.856053 19102.715940 15816.363535 16374.761533 11576.792822 11227.745281 5920.758554 8353.859817 5665.837485 4564.887657 3828.565609 19412.357964 20272.707408 14086.377631 8544.362763 10872.277983 9506.159961 7589.598545 12310.045172 4697.948409 7546.408324 2778.576747 19453.854882 16554.117743 17706.055661 5645.371250 8278.946700 7005.348336 5846.565915 7750.721165 4013.439654 7275.399701 3555.121883 18032.848963 13469.227538 11175.881794 16178.848344 9947.727631 10164.571386 10289.544497 5330.128719 5467.782164 5674.730874 2256.353514 16920.586980 17406.716756 16455.408750 12536.126035 9785.274803 9505.350540 6596.540679 13429.494010 6325.459665 3518.819959 4256.442070 16497.646976 16717.047600 16683.422452 11497.642106 8546.539273 13266.094195 12396.527765 3536.897004 8681.153561 4223.295630 3805.125841 15526.444251 15702.156875 17632.622109 13579.311342 10307.343275 9643.501539 12245.937014 8816.039020 10322.236492 3156.017620 2801.500003 13127.131164 14175.968812 15900.094232 14666.204949 10023.077531 12066.452257 8569.099804 11254.264276 8038.534995 4838.665238 2429.733681 17878.527255 18291.655014 14217.448189 14121.104655 15173.213320 10634.884136 12028.469891 9539.273132 5537.795146 4744.419154 3622.134413 17960.691012 15846.520168 16926.834264 15391.424568 12765.527379 11983.686649 8962.319654 6402.500009 8829.046541 5711.005927 3189.548264 18500.970811 16733.591400 15307.738325 16035.020978 14063.051623 12363.702901 6625.945564 7845.282118 5468.345273 5435.562421 5149.598975 17869.899327 18511.892772 16820.933008 12529.465996 12165.564397 6487.023248 7162.801726 5326.629469 4060.588763 5037.053585 4993.500480 16138.972025 16499.101474 19001.087032 11105.138133 10814.783349 9691.152905 5297.356784 5897.860522 5572.449831 2609.201131 3141.739731 18291.274668 16192.051687 15292.182187 11214.604916 8192.702268 8676.682074 10490.213858 4799.838843 5467.840071 4343.572826 4211.688060 16572.824215 16277.944131 13093.691853 5185.634063 13724.506733 7038.722920 10784.773947 5905.392657 6832.414385 3315.736030 3923.926178 17385.078613 15225.323425 14323.175033 14507.347273 10592.868601 11772.697005 10415.174885 13292.619327 5335.233139 3132.091375 2104.860945 16239.447216 14308.800626 15117.824498 14161.232131 11702.084817 11040.701362 10118.492584 10715.214826 4087.053325 4297.848207 5468.166155 16916.979612 14090.363778 14094.186078 14364.471187 11548.702715 11255.245415 7975.311431 2207.206337 5684.191007 5098.423234 4044.020730 17882.473975 15066.742333 14819.420572 11378.462806 12450.553167 8064.703156 5056.259408 5380.792096 6901.203224 4999.420290 3073.245836 15921.554639 16449.555971 14817.016792 13711.513280 11726.120402 11594.618071 15173.103042 6519.211883 5177.899029 4661.035062 5162.996332 17395.739258 16201.503991 14182.766541 12340.550089 13315.388895 10558.964083 7961.516031 9067.567610 4819.396298 2995.290314 2939.794215 17413.092734 14631.739012 17916.191599 14521.043567 11794.553243 12905.986649 10385.034009 5700.576359 6676.324165 4232.825065 4610.844149 18192.337991 16690.630892 14788.144140 12548.467158 7896.399219 11479.771823 10087.668273 6053.951847 6060.499912 5521.237153 3136.152761 16098.754304 16025.245663 12538.642752 15138.867828 10779.910086 13671.151311 9117.630510 7892.187947 3694.375653 4095.828513 4009.038946 17694.143344 14737.805788 13258.123045 15571.488808 11499.977828 8390.025098 6767.994705 6767.629158 5198.865638 5452.617026 2089.589387 15695.466038 16658.281621 11086.223776 12090.701094 11148.973930 10813.416119 13277.471802 5676.114637 8184.573386 5820.635840 3827.959547 15894.657208 15484.136592 15116.976917 13885.882759 7461.641670 9422.729734 9926.314175 6392.103410 5050.311091 6761.086192 2542.086001 14644.415750 16235.242864 13811.092873 13186.314335 8690.829977 13381.374001 7005.164051 10953.584022 6554.265834 6458.929923 3268.626351 16193.547169 13465.976246 15159.825610 13927.578597 12712.975131 9226.041736 9612.127551 6505.647266 7997.387826 7370.850840 5299.207237 14557.050144 13761.166800 14558.375642 12879.565701 8136.538425 13097.792684 10421.586167 5891.800082 13119.662531 4269.758437 3664.734847 15542.351062 14282.816626 11039.224173 14489.929953 14139.175877 13590.181800 8251.828619 7059.483035 4963.775292 2962.916715 4336.415644 15594.697465 14369.443134 14916.191822 15068.593299 14816.224343 11163.796117 7902.105383 7159.200185 6581.384548 4870.449636 3043.742215 11778.507652 17187.936965 12710.553939 13721.914994 12016.088483 9017.695021 10116.604580 4200.738300 6656.586485 8433.307809 3127.868022 14690.045846 14591.759241 13049.086468 15181.838965 12118.399280 9824.584828 7538.836347 7906.861410 5700.099813 3605.936652 717.880266 15552.037553 15662.608847 14255.247856 13818.546575 13304.309245 9853.095028 7097.070421 7434.073845 4822.241056 7132.314079 2820.550445 15280.986318 12575.933024 16004.372338 11402.179490 12244.040760 10053.535949 12186.575519 9312.124183 6483.042074 4100.047936 4972.772879 15929.108335 15308.190773 14149.632542 15780.483984 9978.991645 7923.024310 9697.978467 5512.451679 8731.089813 4950.944839 8855.694344 14824.057153 14726.756212 15407.352432 13956.753943 8694.163641 11056.075814 8669.152737 8880.334652 8725.337483 2231.898083 1352.388541 14383.143841 15535.609509 16164.053137 12131.510884 12120.847533 13076.666541 10976.558181 9386.582613 6314.162401 8699.465844 3268.368969 14884.216322 12997.989788 15947.222819 13663.841558 13713.050977 9831.593557 9487.996609 7250.852195 7291.468763 6976.789213 4845.816184 13605.438621 11487.282559 13658.185851 12775.662812 11540.797197 10710.542949 8693.823602 10117.337740 6851.685925 7031.422534 2641.632407 12810.367353 12208.476355 14290.219063 14309.081394 11364.261550 8780.235540 9858.327873 4672.948397 7428.810744 6958.463214 5136.716095 14223.734685 13600.169905 11391.512346 12730.931163 12610.353489 9346.104920 9899.573479 9905.467025 4223.968527 2949.499853 5786.052059 12766.986386 12095.273023 12388.873482 13816.385703 10857.740025 9931.525698 10591.702138 7980.190428 5564.619047 5848.557496 4300.341417 14856.966889 15097.157442 11753.522448 12404.229744 9944.868871 11857.208286 8546.679801 4253.708501 6755.660350 3432.662565 2813.999204 14680.129255 12559.499584 11043.718805 12686.913007 9872.479552 6274.240993 8484.226767 11433.415250 7938.497934 6466.042571 4478.961902 13899.542130 15216.745852 9641.881377 12035.574103 8827.821156 9614.723130 9694.406680 8470.348928 7385.357023 1083.392059 3251.896334 14695.143583 14040.910178 13311.273135 13744.117105 9441.979943 10537.712156 3883.949371 9457.687130 9265.488944 5854.747199 -260.809018 13167.071160 15021.677277 11159.535206 14663.559223 8224.376339 10228.639778 9086.110329 10157.592288 8111.943650 4765.465072 6710.726898 14471.631626 14823.444440 14357.768340 13263.920635 14091.644859 9816.990710 11906.099254 7469.358824 4732.056468 2519.995797 4689.947924 14128.902597 12663.086365 12419.622346 13369.560443 12152.328921 10891.274305 5933.440236 12541.150688 6993.808695 8034.832670 1024.755250 14359.840720 12843.955852 10218.995104 12022.722710 8968.743375 11839.623003 9472.787429 7751.740066 3366.836820 3486.708755 7880.015372 13772.979142 11591.982017 15090.179571 11822.648575 10378.405839 8529.258675 6402.714202 4947.513498 6542.165955 6146.802741 3871.946644 14142.033542 11537.407985 13909.584160 8056.779196 9176.022320 7578.581296 10584.483158 7413.956799 5092.076035 4818.941043 3363.875485 15626.930843 14288.711669 11800.409042 11132.758480 8805.896233 6678.245821 8703.134126 6140.401151 6865.197052 4760.151589 7473.315365 11470.388683 9550.999858 12317.299228 12834.002059 10622.402836 6341.512625 12097.933434 5319.168471 6438.727995 4520.162663 4238.853410 15660.538773 14366.141757 14614.750506 12187.520433 9614.438720 15875.411749 9469.975487 4914.318605 5334.744112 6151.648585 5594.407620 14615.946959 14264.358439 15090.246049 9401.982069 10941.954209 9508.099203 10654.756793 13705.186438 4977.386807 4359.020005 4355.238894 21324.611406 31160.649335 25166.440913 24115.562940 16239.559130 22963.953454 20580.142513 25563.897775 25812.517555 17507.719358 16939.016163 12007.239301 7460.781348 8131.812695 25090.943935 14735.449568 25857.510583 23478.332586 10643.527381 25724.595512 16482.472983 12521.258750 20688.799660 8567.432634 12863.386576 9445.934564 7828.684433 14536.356460 12280.610185 18446.664325 15238.119352 8088.181636 10620.367113 9952.102334 12703.895472 13131.748098 21387.046146 10723.160061 6098.513262 6499.530021 3589.097967 7576.859123 16686.648782 11627.805223 14393.530019 17339.913714 18362.349931 15096.406067 15502.358879 17531.965165 6775.893632 20336.070665 13319.432263 8363.855029 6459.251713 6597.967877 16866.885718 24584.173429 13960.434978 13393.183086 22348.651712 17436.401308 16227.949720 14113.096397 15058.046546 6940.619283 12396.119312 12145.688559 3919.803594 2589.957831 14463.688485 24625.883390 12115.952517 25206.384119 21064.143191 23430.957580 22374.658467 12111.586242 9160.246807 9124.288698 8387.607586 8113.979314 16267.636021 4464.441555 27379.845441 6047.473978 15591.018923 16764.747231 5702.429199 21330.961031 19546.395532 21908.386593 11377.814905 10615.924624 10552.449076 7167.473211 3929.727616 5037.558881 10519.683452 11587.908305 10614.022838 20964.872070 13962.613255 15928.223994 7235.759749 7943.620704 3556.643213 8235.137664 11014.522143 4652.194042 4516.496841 4696.624320 19091.753733 19675.107521 10802.257460 6484.627300 12726.182517 9319.506002 7663.203933 5749.259120 4629.635363 13208.611478 9114.351071 9197.046381 6734.950129 -3391.555742 8688.221130 12433.263795 13346.984347 9973.255617 12804.666344 7891.227979 13051.563401 10387.675984 13984.381770 7171.387075 6427.851152 3118.232316 5223.556170 2121.430177 9527.072054 10503.601967 18572.646518 18227.290063 6187.409575 7949.262963 8360.240372 16691.195538 8059.944807 12375.920386 19431.491823 8882.717926 5316.363025 3715.415457 10496.532711 8582.348076 11401.048346 22364.210495 9958.665837 14489.694246 6346.612875 13042.760234 7971.945286 9093.021652 9614.900729 20226.507932 6122.333720 4742.284243 7231.844631 6999.083360 3668.646870 12646.088639 5116.355929 4647.285643 11492.889803 17275.844252 16903.670519 8674.358965 5395.978949 5852.123384 5497.362590 4493.390387 3348.883571 8557.348559 3266.131094 6694.322808 7756.428865 1157.249968 7369.641478 11817.279861 7058.694726 11863.761228 8339.464732 5234.998224 3744.075794 7063.354008 6920.737653 2709.036301 5255.589875 4563.242835 3445.845930 3835.299211 7834.925631 6771.864491 2433.766337 3251.156821 4201.558964 6529.723220 3111.005878 3568.038410
</DataArray>
<DataArray type="Float64" Name="Velocity" NumberOfComponents="3" format="ascii">