<VTKFile type="PolyData">
<PolyData>
<Piece NumberOfPoints="1945" NumberOfVerts="1945" NumberOfLines="0" NumberOfStrips="0" NumberOfPolys="0">
<PointData>
<DataArray type="Float64" Name="Pressure" format="ascii">
 30768.490573 30304.235186 31556.964617 30591.089021 33579.014175 28964.028021 32461.503682 30329.191166 29811.501621 30070.782100 28307.762379 27624.879905 30035.462734 29513.134356 29896.369325 27885.559436 28076.592782 26652.821804 29611.692333 27662.987894 29237.285001 26888.212464 31829.177747 29675.195780 29947.063458 29482.756682 26410.567149 27886.621309 27975.417474 30039.571199 29878.304641 30423.072841 28514.445296 27501.630652 27608.050189 26227.085948 25149.795280 25819.336262 26111.536553 28234.143010 25444.695022 26867.379199 24332.165648 25077.169622 24007.221300 24242.429496 23832.884236 24505.902503 23453.478707 23653.432426 25190.670206 21283.210906 25332.894271 22890.955038 28022.670650 28497.257198 21500.956118 21456.052413 24137.822912 27247.177092 17668.283032 19092.517850 24538.179920 27103.346628 17712.712927 18668.923900 23103.699721 23777.154799 20502.977963 20107.396158 20654.718221 18697.327607 25988.060082 25816.306323 21188.367786 20953.788426 26345.779272 26288.759309 20059.498296 19029.156967 23146.976603 22129.524781 19708.845148 19698.540433 18843.980576 19717.399003 18587.394597 19288.924247 22921.767770 24416.209659 19535.733082 18431.901204 23593.631159 22669.680596 23928.716914 21676.012621 19628.290160 17713.125968 18695.573346 20233.218787 14689.866678 15947.367804 16593.269932 18477.587411 19192.974937 18653.414153 19698.829476 18812.991967 16220.093417 18049.458039 17381.235378 17847.998823 17335.713496 18382.976443 17893.878963 17017.917297 18679.536423 17115.662604 19908.817095 17888.690855 21352.886724 17280.200293 22613.789185 18952.194895 21438.864465 19816.510422 17503.026820 17001.162390 18089.806493 18215.032758 15416.028904 16214.857783 19378.903183 17860.470808 20581.124279 19656.955688 19650.913727 17781.638535 19128.374243 19534.532700 18462.177643 19269.800181 19789.108782 19342.228952 20368.772742 18637.563883 21282.212636 18967.742079 20970.644026 17977.725118 20022.167479 16453.116941 20088.027960 19357.197371 17509.631766 16568.762806 20020.418418 19422.001869 18635.879830 16294.256394 16914.950517 15179.239732 17788.431739 18386.974978 15458.180738 15526.133112 16799.350855 15993.504444 16823.231408 15009.975985 16026.061318 15661.890937 15561.949141 15758.276364 15769.180890 15890.759386 16684.069915 16398.945004 17769.430191 16002.548519 19390.753027 16839.188801 18486.725438 16834.119202 17751.695608 16702.669576 17556.505455 16359.611269 19111.948560 16309.624390 19837.189057 16902.220907 19229.071751 18171.497358 19054.437043 18252.048474 18482.007302 17873.365317 17038.141053 16244.242723 16499.572263 16391.663575 15268.155557 16642.234147 16531.388418 18338.322392 16187.581344 16740.925667 17324.147518 15993.495843 27891.990337 26588.873918 27012.184379 25026.177033 23650.130295 23541.730026 21906.349623 19075.404964 17785.728859 17108.363629 15384.143538 13606.168554 9895.087986 4429.171074 1061.956780 1317.907435 413.010397 -1399.058301 -2847.437829 -3761.058017 -4365.636098 -4762.372992 -5009.135619 -5143.082407 -5190.061785 -5169.021624 -5094.401003 -4977.551429 -4827.624891 -4652.145109 -4457.383714 -4248.614653 -4030.292203 -3806.180971 -3579.455464 -3352.779964 -3128.375102 -2908.074851 -2693.376080 -2485.481946 -2285.339948 -2093.675259 -1911.019872 -1737.738069 -1574.048749 -1420.045387 -1275.715917 -1140.974141 -1015.772496 -900.702551 -800.914390 27495.823329 25909.569326 25919.234009 22339.377595 21907.316891 21805.063128 20119.702177 15979.937272 16128.214185 16468.568085 14899.016054 13775.464437 10916.745766 5884.240548 2488.376701 3871.393169 3530.410325 -1175.056109 -2750.662148 -3696.148419 -4321.187303 -4730.443044 -4985.241280 -5124.722243 -5175.736885 -5157.767282 -5085.560302 -4970.656134 -4822.327260 -4648.176725 -4454.529992 -4246.698890 -4029.165566 -3805.716141 -3579.542520 -3353.323583 -3129.292534 -2909.294320 -2694.835442 -2487.127514 -2287.125430 -2095.560813 -1912.971255 -1739.725873 -1576.047590 -1422.032343 -1277.663791 -1142.812704 -1017.152238 -899.574375 -784.459603 17072.934013 13125.846494 12915.773162 12899.357785 9576.733468 8425.643340 9112.474519 7245.380914 4369.940765 3392.969086 3485.975187 2533.181901 1675.609212 1047.503655 580.111256 242.314949 0.736635 -173.892388 -304.913177 -409.686775 -500.190245 -583.845522 -664.427975 -742.979025 -818.666597 -889.546756 -953.193441 -1007.180588 -1049.418344 -1078.358496 -1093.092206 -1093.365665 -1079.537893 -1052.501224 -1013.580650 -964.424016 -906.891648 -842.951421 -774.583459 -703.697330 -632.063658 -561.261204 -492.639780 -427.298593 -366.079008 -309.570041 -258.124103 -211.877947 -170.759692 -134.375248 -101.172360 16284.750005 14645.631008 13779.883677 12715.492754 10648.915493 9433.331758 8566.699159 6853.085428 5383.315720 4261.520659 3367.386262 2484.329944 1702.752175 1077.117745 605.798952 262.237945 15.056688 -164.281368 -298.930855 -406.290973 -498.467044 -583.044471 -663.972024 -742.459392 -817.826842 -888.259370 -951.432403 -1004.993274 -1046.899529 -1075.628245 -1090.278437 -1090.591383 -1076.912571 -1050.115588 -1011.504090 -962.703943 -905.554241 -842.003361 -774.014341 -703.482513 -632.167363 -561.639694 -493.244473 -428.078978 -366.985276 -310.555520 -259.148497 -212.917851 -171.866401 -136.025510 -106.430377 -729.789577 -697.058890 -703.550849 -672.397806 -636.780161 -619.360647 -555.068113 -552.940539 -487.065123 -487.285168 -426.784145 -427.356416 -372.923744 -373.512781 -324.872500 -325.424400 -282.144948 -282.652019 -244.287423 -244.749891 -210.865831 -211.285462 -181.466021 -181.845015 -155.695668 -156.036424 -133.185874 -133.490906 -113.592239 -113.864119 -96.595417 -96.836726 -81.901198 -82.114487 -69.240203 -69.427961 -58.367238 -58.531862 -49.060386 -49.204163 -41.119890 -41.244976 -34.366877 -34.475290 -28.641986 -28.735601 -23.803936 -23.884476 -19.728061 -19.797104 -16.304867 -16.363843 -13.438610 -13.488812 -11.045936 -11.088522 -9.054582 -9.090585 -7.402159 -7.432495 -6.035021 -6.060497 -4.907221 -4.928545 -3.979557 -3.997349 -3.218710 -3.233507 -2.596465 -2.608733 -2.089018 -2.099157 -1.676355 -1.684708 -1.341711 -1.348573 -1.071091 -1.076710 -0.852850 -0.857437 -0.677333 -0.681068 -0.536563 -0.539594 -0.423967 -0.426419 -0.334149 -0.336128 -0.262694 -0.264286 -0.205999 -0.207276 -0.161135 -0.162157 -0.125727 -0.126542 -0.097855 -0.098503 -0.075973 -0.076487 -0.058838 -0.059245 -0.045456 -0.045777 -0.035030 -0.035283 -0.026929 -0.027127 -0.020649 -0.020804 -0.015793 -0.015914 -0.012045 -0.012139 -0.009157 -0.009230 -0.006934 -0.006990 -0.005219 -0.005261 -0.003888 -0.003920 -0.002841 -0.002863 -0.001992 -0.002007 -0.001265 -0.001273 -0.000586 -0.000586 0.000126 0.000135 0.000966 0.000986 0.002057 0.002092 0.003566 0.003621 0.005720 0.005802 0.008834 0.008955 0.013345 0.013519 0.019851 0.020097 0.029158 0.029501 0.042342 0.042812 0.060808 0.061443 0.086358 0.087201 0.121249 0.122350 0.168235 0.169645 0.230567 0.232334 0.311936 0.314095 0.416307 0.418871 0.547614 0.550553 0.709253 0.712469 0.903292 0.906590 1.129353 1.132399 1.383053 1.385326 1.653948 1.654685 1.922901 1.921037 2.158836 2.152941 2.314857 2.303071 2.323785 2.303768 2.093211 2.062101 1.500258 1.454660 0.386339 0.322348 -1.447713 -1.534437 -4.245653 -4.359729 -8.298500 -8.444376 -13.945681 -14.125800 -21.576824 -21.781606 -31.651521 -31.798576 -44.835411 -44.414997 -63.061545 -58.680236 -79.400268 -71.097959 -86.454082 -77.601329 25776.319666 29094.928240 23764.140162 29940.305027 27473.852455 22331.407685 23888.165065 23381.022518 20862.733424 20475.147762 22693.489196 27025.396301 24091.443566 20205.588176 27704.613491 18731.131250 11295.306483 20172.609507 19433.811202 18985.531115 21037.180106 20509.794296 29205.336106 23881.245187 28494.561477 27854.713558 24001.618681 27145.134130 18529.929765 24932.992399 19381.587678 9593.835945 22911.214482 27668.325066 27360.344596 27988.666958 13129.402757 22841.819626 25823.770327 23305.126328 14577.802766 21376.975220 11864.514866 25699.606581 18867.034588 10737.858530 26463.028866 26852.033744 26986.511824 23422.412807 26284.887816 21039.571229 13101.224134 18363.874887 18103.381362 22892.760927 24597.583486 26798.634335 27438.881902 26052.104448 23535.079093 27492.931389 25094.655396 22131.535849 18436.640805 27910.016660 22852.571777 23228.618813 29174.719108 26794.935765 27472.694745 25117.844469 25322.378847 21311.217929 21655.001639 22038.036865 10700.496871 26465.665628 26024.998460 28107.455271 24804.765270 28417.405068 21382.945809 19108.480843 24858.349122 25116.350532 16441.234680 18107.736302 30027.408126 27142.884233 21005.016208 25593.323883 24862.378541 20012.228846 20664.570178 23603.959538 21140.419518 13970.056899 19112.625369 25907.286119 22391.645078 21446.159999 23977.648740 16090.728009 28152.531313 16385.156969 23392.365036 23386.320983 11278.975196 17272.182418 27816.107842 22699.222246 27255.193485 9083.228939 27909.393948 17064.882938 22748.872795 12153.626354 14791.894418 8960.871924 8828.170460 26079.214878 28337.875495 13833.835300 24364.230714 8823.463906 19170.296142 12992.106205 15760.014601 17469.877811 17159.945740 16285.663901 25188.999437 22875.438965 22348.612998 20879.837115 16288.621841 21414.356218 17973.841779 17123.133003 23954.077926 21953.859358 16270.665919 23931.037259 22646.690197 23404.545951 23802.461842 21521.630762 17885.129448 20586.536669 17492.361631 21305.406702 11578.121102 14049.136356 24700.255907 22716.063923 21041.949309 23491.933786 20008.734014 24834.784008 18221.645400 15754.752022 8269.705741 10038.253009 9406.080602 24477.910661 24080.547105 22382.204385 18561.631033 16261.297305 14448.526964 16920.365919 10446.397459 6460.802103 7844.302644 1155.375624 22525.962481 22460.409714 23621.934652 22572.576833 21791.798673 18224.036240 14468.696681 17655.603021 9212.134068 2853.017065 4742.708206 23027.797626 18657.998905 21590.029205 17571.230767 12386.489424 8113.521207 4849.546692 9617.001403 -80.865536 3709.385693 3321.291413 22860.026248 22801.884876 20810.824133 22649.208739 18617.667871 9184.665908 16022.342327 9128.315873 9082.681248 3039.373733 8632.882979 24509.047657 27750.025682 20981.988069 19892.308227 11513.751419 9235.865091 8260.348081 7067.144162 2444.600077 897.797668 1840.863891 27639.286307 22093.833533 23863.865117 20694.034341 13686.812067 7121.418014 4639.409344 3060.732046 4637.907554 2596.933434 3978.797574 22850.848489 22433.247610 17382.508367 16743.679404 14749.620149 8639.572881 9378.191400 4685.213286 3125.144328 4419.855130 1924.318696 22962.966048 23365.872257 21356.509981 12269.384524 16792.193306 15153.834824 8241.159594 5087.159405 5890.986167 6330.247044 1242.401474 23791.420471 22163.664427 19050.784750 16992.226145 9686.505683 12110.614921 13194.921821 12503.994915 11045.374861 4451.248356 2895.420493 22733.727162 20123.646267 20170.626960 17044.496197 13070.951210 12843.835419 9804.568450 4760.275386 12084.621860 5147.480845 4492.884955 20983.778198 19309.998667 19412.593168 20730.776782 20435.027454 10848.556526 10420.043400 9394.032880 10422.442676 6828.731087 2464.727200 21812.509564 19808.166682 17264.910110 13946.628095 18467.954029 7584.005426 10796.599275 6345.351649 4303.762811 3352.703629 2206.128774 20866.102529 18410.637791 15358.088050 18330.856042 11816.103006 16115.548462 9508.144681 13467.980514 3729.480263 4998.403114 5743.723272 22927.418821 21227.540498 19664.352876 21810.698124 15579.172860 10821.758461 7820.532085 8698.649490 5367.092415 7660.457369 2265.016127 22075.293130 20065.243474 14572.248621 11517.751185 14661.122252 7121.325513 8728.397644 2844.969104 7506.723360 5589.475016 3478.212009 23104.786059 18789.736907 20632.636507 15588.787801 14879.954822 7934.976685 10271.541336 8544.026251 5866.315315 6962.799844 884.971220 20310.268737 18875.843894 16910.721283 18524.442066 15510.999400 14546.045668 11259.247460 8043.293124 7958.266656 5684.139023 2918.898068 22158.216556 12615.781377 21238.351052 15482.649152 15176.245588 12076.545732 6172.521310 10464.232681 3639.925151 4837.898725 2176.859765 22921.463346 23138.888297 20724.981545 17110.407335 13643.902389 11196.317019 7777.915735 8338.778605 5073.310724 3845.534495 2626.715613 23753.477311 20016.943467 18361.436731 17528.441852 16834.289409 10757.814197 10607.441733 2861.219881 4952.116717 4795.834720 2580.257021 21847.189313 22079.776632 19925.259996 16754.886016 14929.223161 15176.301672 10019.586041 12247.897441 2798.788819 3081.632507 2805.779383 21923.234798 20854.660451 12545.367838 17626.398015 18319.197744 12091.610708 12788.123934 11862.099020 7624.300181 4561.416715 4421.807711 19427.756895 20495.352404 21503.282361 16577.858843 14276.792871 7220.433713 9168.359800 8838.835876 15246.888163 2155.776859 6186.394455 20915.978397 21220.834649 19340.521400 12380.909163 12802.831692 7581.754401 6796.711174 3000.502576 7241.662483 3330.841841 3130.201917 20994.843558 17713.216780 17193.449398 15331.912047 3805.499687 8481.282788 5325.850530 4070.145571 3275.700216 7490.679737 178.642633 20123.998037 21874.285741 18412.744285 18676.817090 14961.964363 8956.609597 5300.976963 5055.980122 7488.169532 1894.658768 3316.309014 18284.288921 19959.942230 17015.204311 12426.213348 11876.026879 11192.469807 13260.327487 6370.170269 3305.533258 2067.821980 3436.276563 21282.453605 16641.998643 17671.595614 10715.137257 13565.385862 8652.274367 8893.505648 7826.388433 7097.706297 4216.607475 3827.288373 18546.803730 18771.679440 16273.994854 18446.464614 10038.750459 9440.089766 6610.021923 8313.223645 5320.724165 4479.466144 3127.736690 20406.261090 22503.106260 16260.691706 8249.758730 12394.087519 9812.485456 7310.394209 12732.680311 5468.059272 7086.724960 3008.196595 22267.782761 18023.919535 19756.922787 5727.946455 6727.513474 5811.456436 6356.058210 6615.998757 3250.945237 7026.916039 1774.462972 19199.175051 14035.808880 12252.066515 17319.469739 8953.350271 11660.997565 10990.009809 4246.347565 4582.717270 6553.823393 2216.226753 20774.556238 21214.887580 17866.435620 16489.229926 10292.255339 11991.450189 4759.676434 13788.573022 5934.154514 2550.025491 3399.842105 16197.524746 17527.079242 18240.685894 12251.890688 9438.580298 13734.180195 12725.002788 3416.682556 9822.554635 2328.537515 3394.060352 21643.402110 20702.536641 18801.726307 12492.657571 13181.926073 12032.776258 12519.336695 7470.085717 9624.200059 6793.793014 2929.102914 15281.699209 16316.128900 16578.120297 14832.344448 10454.140922 11803.446966 9190.967647 10430.898626 7607.852413 5133.685974 1634.587815 19737.096467 21412.504463 14958.474908 14193.523726 14816.646881 11561.428692 10838.328826 10178.008423 5095.183222 3792.074562 3112.984887 15448.899719 16511.551405 15413.710110 18921.587378 13439.495060 11761.696334 8990.277545 6283.818242 9133.943176 5490.611563 4378.977480 16342.900738 21465.101269 17321.536219 18474.633181 14174.190798 12931.978700 7044.918600 8334.857636 5064.301518 5268.596882 1820.067136 19253.222110 22385.540269 16163.911523 15497.465478 10060.317183 6023.673574 6298.226139 6333.905232 3231.826132 3644.820349 4574.827179 20608.113738 21361.593935 19108.844550 14688.866875 8472.197983 9498.627549 6195.519445 4188.825781 3335.301056 3767.122855 2907.520753 18871.297035 18262.766215 15924.040286 12659.691266 9661.395512 8657.275548 9933.537892 5180.936303 6123.604157 2375.211513 10853.385524 19587.403297 21443.992402 14272.585561 6549.117211 14750.865797 9067.030724 11046.740184 7259.254155 6040.032928 4108.725247 3345.707922 18024.819015 15569.569837 18132.874871 16027.343944 10384.395221 11118.889739 9588.416922 13901.862240 4403.056500 3779.828549 1601.537684 20709.946488 17429.742233 15590.575266 15599.362566 12516.153680 11927.858010 10026.505871 8650.625791 4063.554842 4507.567325 5989.326556 17772.851943 14916.385266 15682.859237 14751.047959 11049.127094 11516.812849 6875.588432 2561.759752 5411.481817 5831.156924 835.274696 17192.677234 15341.692178 15321.295718 12360.632665 12155.225314 11425.982751 2143.712255 4090.534828 6828.645238 2813.471386 2535.379886 17102.674704 16251.657930 14622.415397 14294.464910 11079.170222 12961.641114 15925.647684 6787.044115 3617.865310 1944.790135 5641.178868 17197.001750 16893.329424 16650.109158 12516.930610 11569.137456 12067.742155 8366.370984 9070.019637 4208.630018 711.462990 2718.843135 17277.886434 15459.814746 16118.027094 13279.861293 13002.943683 15268.535590 10236.556370 7368.869011 5831.271763 4344.481911 6116.583653 16786.043847 15566.643549 13958.978310 13125.600146 10391.434313 12109.230447 10112.018132 6364.797001 4424.706764 7333.830226 4374.695775 18566.909788 13985.669724 14027.373280 16297.986220 12098.635499 15676.228769 9123.365997 7263.599637 3814.239944 5057.944589 2838.037485 14865.490843 14583.531241 15699.100071 15450.308666 12473.902694 10458.784608 6863.447701 6861.708732 7189.270078 4988.547293 4509.454518 15961.775896 19389.473510 11095.460991 12068.159031 13214.552224 10111.282677 11449.247226 3787.050510 9399.728880 5286.890211 2754.413471 17923.413511 18489.562486 19050.306430 15676.035775 8555.300851 12046.168100 8651.093725 5058.613221 5514.512650 6197.222685 6266.642618 16987.089693 16706.304352 13849.558663 13859.808166 11719.909060 12491.549288 5942.584925 12451.237377 7923.130044 6967.885279 4422.806237 19036.608413 15444.088085 15841.500209 17670.556273 13182.735712 9931.185456 11651.446416 6966.860053 8281.996878 5708.407495 4853.073402 16525.483966 16185.273802 16522.623953 15838.588851 8387.776994 12051.970569 11543.408077 6445.685036 10456.938821 5870.738211 5947.740734 16165.117307 16225.120773 13723.248412 17097.845151 15329.644391 14460.691937 9310.792135 7583.896049 5823.727618 4682.531971 5332.509324 19163.822521 18189.245725 16081.498708 15956.892689 11789.599744 11997.085415 9356.185458 8048.888346 5870.471738 5734.791160 7350.559468 14810.802292 18949.920002 12976.443646 16990.240521 12612.069345 9497.984116 13606.481224 3283.939772 8556.878610 9213.144569 1401.475032 16342.232147 17369.050382 14590.654196 17256.040387 13770.092618 10499.661298 8026.869136 8264.140734 8166.725706 3445.031349 5130.052586 17539.385451 15912.343950 14290.980473 16211.821563 13979.160538 11684.717363 7950.881693 6421.664703 4745.303918 5114.354456 7086.322801 17550.958623 13767.309576 17139.361730 14660.333861 14075.053637 11471.721647 13456.367871 8747.374701 7215.482761 4961.956518 4791.814242 12769.057383 14448.054863 17094.985927 14496.218416 12064.480347 9025.897979 11817.181169 6084.080549 8226.440904 2764.811406 8949.464332 17390.997924 16013.112926 13851.593465 15115.473523 11520.367376 12350.804752 7851.785435 10676.742892 8078.647400 4693.153183 1031.777741 15050.839682 17438.401047 14618.122370 11851.858814 14016.607961 12378.763121 11044.845165 9918.907311 9137.770206 4956.182858 8136.612220 15393.514469 14381.159297 15055.382101 14570.880074 14850.178774 11287.054540 8141.496240 8598.144016 9813.559205 6409.718990 4839.302999 15343.477074 14553.964188 14869.349142 14374.453716 12837.376258 11909.079068 9065.047801 10344.515527 6567.769580 4857.408052 6322.885793 13411.424766 12396.120200 15259.310682 15495.787309 13108.465938 10104.123881 11247.882415 5949.478229 9090.054134 6326.423822 6751.380604 15387.144396 16477.397427 10990.223840 13539.872474 11271.730095 10807.164114 9472.482323 9412.323201 2059.768155 2938.550643 7213.062204 16474.769752 14661.142144 14237.829627 13932.599077 13085.559469 10055.116767 10452.604936 8445.869691 5173.389281 8750.235218 8789.319482 15891.975168 17266.489792 13100.075133 13837.674798 10674.054030 12635.305629 7066.552794 4695.605668 10237.709887 4757.921250 302.280105 16343.087556 13459.958920 11867.927019 13121.571668 12183.633785 11613.942779 11058.574626 10949.740633 8333.866810 7205.512782 5499.715830 16230.151938 16345.111739 11495.042042 15630.578625 10985.296500 11552.749185 11725.202173 8272.060603 5941.278845 1848.107799 8224.028401 16516.458011 13994.408444 15591.172710 15465.297170 10943.120233 11850.108130 8540.137955 10692.515063 9597.330515 8492.527750 4121.126074 14440.163399 15216.595158 11928.865748 13122.747370 9084.940174 12795.482055 10695.119783 12651.889116 8439.080529 4244.458550 5937.544121 14136.534055 16478.155820 15092.489893 16202.802412 14207.570102 9363.434330 12345.692430 11990.216768 8755.667479 4088.915048 8594.650639 16060.086900 14097.098346 13706.354216 13354.245390 14020.815716 13006.151996 9446.748390 13228.113329 9116.722528 10049.442547 1526.737500 17713.811974 12940.790175 12241.632560 12455.550064 11934.440835 12104.293111 11426.389188 9869.328137 5063.368810 2269.625777 8966.185221 14634.003583 12317.809860 15126.450295 14099.305751 12029.525889 11710.478697 9853.054764 9002.855282 5907.649145 6383.486432 8210.082539 16492.582609 13507.922106 14385.000245 9656.882433 11370.435821 10170.687164 11885.868963 7028.858434 7667.777044 8732.304789 5095.070387 15504.691882 16634.383976 14030.660006 13956.261823 11021.115804 9139.690885 10795.615965 8975.958930 6901.296050 6850.961522 10275.122370 12528.437827 10027.266764 15225.655434 15082.739830 13419.420912 8452.155863 14120.150899 5625.331944 8877.244525 7448.982301 6170.590682 15837.146938 17802.333422 16847.783185 13192.621064 11680.074115 16387.368881 10879.764981 5702.257497 7595.724377 8068.373630 5599.232178 18358.250953 18205.982720 15018.906332 10983.081621 12384.488011 9645.374141 11691.080352 15743.609293 7215.990980 6990.410467 2540.601855 21522.526267 25461.120170 26189.043975 23806.573649 18987.413095 24188.209426 20412.549500 25837.227553 24730.470532 17331.308618 17123.515909 12646.979953 9739.256720 2163.174251 23594.660211 18493.702188 26835.782470 23014.797490 13521.343154 26432.669639 16134.459098 12633.993964 22009.702532 12632.186694 14060.094833 11578.930698 5459.133503 14921.804877 9025.171904 18487.780744 18055.720314 8262.208924 11218.849436 10500.889600 13249.401703 14138.218638 19298.726961 11246.391212 9415.487490 9307.177539 10726.648652 8598.445871 15909.407856 12783.094848 14497.647866 18005.971334 19104.092352 14874.812763 15881.616477 16036.211160 8488.909354 18897.752610 15851.803505 11465.897887 10987.793620 11163.625864 18684.798943 25238.711840 12473.089725 14610.833668 19871.024129 16573.349121 16473.512366 13675.440580 16358.492186 8066.030155 12098.491898 11073.844506 7789.876232 12217.395718 13854.045034 22450.584167 15067.215179 24141.836934 19745.247796 21207.459478 22322.812918 13768.132217 10691.296327 10951.311868 10805.384573 9442.573759 17249.418545 7787.104429 28710.699606 5090.509387 15548.408898 16467.848566 8070.021911 20478.428646 17743.683232 22069.867370 10170.210913 9884.557691 8402.521157 9464.661459 5490.690288 6299.226423 11774.253546 11331.092026 10875.937304 19217.499175 15599.413356 17891.900270 7876.139214 8129.116508 2236.389494 6773.387018 11813.912420 9209.584515 6414.083579 6895.815463 18974.277547 18006.610420 12031.043064 5704.546979 15204.959885 9134.725557 6493.873510 8638.895997 6475.551454 13318.682505 9834.428520 7550.884033 5233.685351 4465.399013 5632.505307 15191.922688 12337.598602 13166.602062 13551.830461 9900.429598 13262.429353 10605.384650 15725.599097 7314.978023 6546.667335 5561.570775 4080.539291 2719.636490 8096.765143 10192.565191 21152.003488 15912.452152 6743.696320 9276.190278 8704.461818 15281.581751 11392.865910 14428.772752 16349.903151 11768.920555 4639.480409 4811.827144 13192.421567 5549.629050 13185.665163 21793.457019 9129.726444 12587.614276 8867.229331 15247.849348 8802.152500 8386.574271 8597.741678 18687.941956 7508.726507 4177.548260 6591.183403 5502.530325 9393.482564 13550.072942 4677.269988 8232.402108 9231.121660 18892.361621 17377.483477 7297.229260 8741.127014 8002.276500 7719.816282 4663.283134 14961.318243 7887.770168 7164.875868 7568.796812 7692.124334 8586.220000 7768.243909 11687.597996 7073.215132 14012.375741 9383.032992 6511.437071 1947.836812 5430.410501 3217.171142 1501.795884 279.896806 718.034894 1045.884350 1770.617789 8301.972578 3764.095775 10108.886762 3097.145789 1410.052981 297.532168 141.984674 3228.175552
</DataArray>
<DataArray type="Float64" Name="Velocity" NumberOfComponents="3" format="ascii">