<VTKFile type="PolyData">
<PolyData>
<Piece NumberOfPoints="1945" NumberOfVerts="1945" NumberOfLines="0" NumberOfStrips="0" NumberOfPolys="0">
<PointData>
<DataArray type="Float64" Name="Pressure" format="ascii">
 26909.652721 22143.604325 18929.430446 12289.373686 20009.405177 14853.482170 24854.213235 17991.476770 24254.416830 19001.149150 21584.698529 14136.356157 25216.477438 21255.923472 22541.735632 15365.091935 24451.918710 21739.621721 20483.045586 17065.462911 17524.071254 11962.427494 22513.945577 19555.199527 23608.216331 19828.385276 25521.355011 20478.373868 22675.796631 17134.635199 25583.996600 20944.271597 24985.239227 19048.970627 25337.920584 23407.424365 24044.221675 19108.490643 25001.179427 23302.330225 22074.242884 19718.727130 26846.274788 25785.779168 28340.481539 29328.809232 25765.962648 21413.927244 31807.609239 29413.318202 26087.342056 25181.458291 27315.435444 25093.493799 26059.807685 24832.921509 29392.686145 29541.399303 32134.707799 34442.327479 31008.799796 32183.396884 32308.671180 34720.948428 31831.096548 36317.455759 32506.592503 33461.946722 37027.638693 37867.713780 38265.983302 41233.646828 37958.576467 40072.848298 39949.862517 40096.419790 41684.095971 41594.373556 44040.719316 47274.432111 37795.460631 39598.696939 36707.688928 38624.067898 37822.524507 39802.982345 40176.790022 43733.955628 37787.657068 39406.344901 39243.049009 40391.792833 40679.492990 41718.528482 39901.182600 41658.790368 37742.889412 41350.769034 35502.947632 38805.502350 33648.541289 36944.410119 33174.047261 36446.667105 32821.948032 34904.294767 32460.297762 34168.402966 32312.171178 33685.514397 32224.097932 33194.708734 31853.299755 32223.479397 31636.538699 31489.171455 31487.176630 31268.636429 31454.789824 31253.835130 31345.691425 31122.697222 31180.841663 30849.346919 30844.663172 30290.865050 30546.973779 29807.819250 30125.619392 29165.112427 29777.715719 28628.234578 29441.765057 28113.151161 29108.398210 27603.440110 28897.414127 27309.458683 28659.961658 27005.301080 28499.811937 26845.442889 28440.895346 26867.013402 28302.821792 26728.416655 28412.815338 26961.665723 28438.690345 27030.202045 28542.389034 27137.509772 28905.804828 27657.390241 28946.079474 27553.296917 29397.511429 28425.268669 29301.682730 28404.542291 29370.847916 28945.677696 29275.618678 29248.942168 29139.932292 29584.346053 28780.352961 29596.435274 28559.439222 30049.478327 27832.480710 29557.413748 27371.118369 29634.839267 27293.875349 30288.578598 26579.224418 29453.333758 27165.814806 30250.884996 29361.447578 32548.102707 28704.533826 32498.881541 26560.297271 32020.061354 21582.812851 26801.876458 19527.427331 23966.681608 21009.951227 28155.340640 20329.942159 26313.258247 20128.021594 25626.248939 20162.647628 25411.782713 18956.398160 24743.211342 17481.748834 23349.218991 13839.304897 16854.722363 12654.133574 17921.125060 11741.210970 18927.290606 9501.113487 12566.195135 21226.040776 20992.212850 21644.252147 21358.836291 19848.532695 17544.057290 17646.416260 15547.610397 12984.521689 9139.659252 5570.343197 4178.503571 -154.053265 -4404.025686 -3842.109262 -2464.466856 -4993.592616 -7988.788390 -6636.737706 -5006.832727 -7604.682681 -10375.081188 -9755.326740 -8518.313516 -7365.952647 -6329.032689 -5398.483752 -4571.166660 -3842.344140 -3205.367030 -2652.721180 -2176.849485 -1770.472653 -1426.611909 -1138.530675 -899.708385 -703.872035 -545.067513 -417.742417 -316.817938 -237.737673 -176.489908 -129.605340 -94.134808 -67.612320 -48.008371 -33.677917 -23.306756 -15.860646 -10.549605 -6.880305 14697.511014 15403.094320 12841.606693 11896.631699 11125.647726 8225.415864 11036.974909 11172.381766 11222.726052 7888.297536 1775.555483 2515.361035 -377.373265 -6212.836029 -3678.287989 -1949.851372 -5855.985849 -9027.039374 -6355.151126 -4348.542911 -7873.452165 -11111.299633 -9649.133656 -8465.466938 -7377.288061 -6351.303132 -5421.884904 -4593.446259 -3862.846567 -3223.926749 -2669.387598 -2191.749412 -1783.737342 -1438.352197 -1148.839298 -908.671288 -711.578303 -551.614375 -423.235600 -321.369081 -241.460473 -179.496187 -132.001678 -96.019984 -69.075589 -49.128478 -34.522638 -23.932253 -16.306703 -10.804860 -6.663063 22244.421936 16964.850199 17300.379507 19224.213128 13476.568516 11442.132766 9610.089695 8929.267011 973.416889 -3125.806859 -2780.936455 -1113.246226 54.297295 510.349917 648.716878 611.669137 502.953484 382.252128 276.629459 193.988414 133.165371 89.895824 59.681331 38.823773 24.578424 14.987779 8.663853 4.613445 2.119620 0.665306 -0.117604 -0.485038 -0.609333 -0.602115 -0.532426 -0.440604 -0.348463 -0.266424 -0.198290 -0.144299 -0.102976 -0.072209 -0.049825 -0.033863 -0.022686 -0.014987 -0.009764 -0.006268 -0.003952 -0.002420 -0.001367 13474.204560 11038.605533 10862.536750 11119.862942 7887.243296 5993.646246 4827.402752 3655.338313 756.942761 -975.333984 -1216.548042 -661.401715 24.370255 455.470416 610.344345 592.817941 497.316932 383.480328 280.465228 198.165357 136.745105 92.653438 61.696582 40.261483 25.594531 15.702443 9.162794 4.956995 2.351112 0.816727 -0.022285 -0.427932 -0.577349 -0.585963 -0.525752 -0.439236 -0.349783 -0.268874 -0.201001 -0.146829 -0.105137 -0.073956 -0.051181 -0.034884 -0.023435 -0.015524 -0.010142 -0.006529 -0.004130 -0.002548 -0.001526 -4.706063 -3.764690 -4.299459 -3.471376 -3.123980 -2.731386 -1.941789 -1.911217 -1.250621 -1.264760 -0.805888 -0.821251 -0.516009 -0.527226 -0.327726 -0.335318 -0.206395 -0.211408 -0.128896 -0.132162 -0.079834 -0.081938 -0.049046 -0.050389 -0.029892 -0.030741 -0.018076 -0.018608 -0.010847 -0.011177 -0.006460 -0.006663 -0.003819 -0.003943 -0.002241 -0.002316 -0.001306 -0.001351 -0.000756 -0.000783 -0.000434 -0.000450 -0.000248 -0.000257 -0.000141 -0.000146 -0.000079 -0.000082 -0.000044 -0.000046 -0.000025 -0.000026 -0.000014 -0.000014 -0.000007 -0.000008 -0.000004 -0.000004 -0.000002 -0.000002 -0.000001 -0.000001 -0.000001 -0.000001 -0.000000 -0.000000 -0.000000 -0.000000 -0.000000 -0.000000 -0.000000 -0.000000 -0.000000 -0.000000 -0.000000 -0.000000 -0.000000 -0.000000 -0.000000 -0.000000 -0.000000 -0.000000 -0.000000 -0.000000 -0.000000 -0.000000 -0.000000 -0.000000 -0.000000 -0.000000 -0.000000 -0.000000 -0.000000 -0.000000 -0.000000 -0.000000 -0.000000 -0.000000 -0.000000 -0.000000 -0.000000 -0.000000 -0.000000 -0.000000 -0.000000 -0.000000 -0.000000 -0.000000 -0.000000 -0.000000 -0.000000 -0.000000 -0.000000 -0.000000 -0.000000 -0.000000 -0.000000 -0.000000 -0.000000 -0.000000 -0.000000 -0.000000 -0.000000 -0.000000 -0.000000 -0.000000 -0.000000 -0.000000 -0.000000 -0.000000 -0.000000 -0.000000 -0.000000 -0.000000 -0.000000 -0.000000 -0.000000 -0.000000 -0.000000 -0.000000 -0.000000 -0.000000 -0.000000 -0.000000 -0.000000 -0.000000 -0.000000 -0.000000 -0.000000 -0.000000 -0.000000 -0.000000 -0.000000 -0.000000 -0.000000 -0.000000 -0.000000 -0.000000 -0.000000 -0.000000 -0.000000 -0.000000 -0.000000 -0.000000 -0.000000 -0.000000 -0.000000 -0.000000 -0.000000 -0.000000 -0.000000 -0.000000 -0.000000 -0.000000 -0.000000 -0.000000 -0.000000 -0.000000 -0.000000 -0.000000 -0.000000 -0.000000 -0.000000 -0.000000 -0.000000 -0.000000 -0.000001 -0.000001 -0.000002 -0.000002 -0.000004 -0.000004 -0.000009 -0.000009 -0.000018 -0.000018 -0.000036 -0.000037 -0.000070 -0.000072 -0.000136 -0.000138 -0.000260 -0.000253 -0.000518 -0.000426 -0.000812 -0.000612 -0.000957 -0.000729 15483.265290 14959.007272 19207.333284 21145.097022 16900.783332 17934.168039 13175.121071 16263.014437 9236.566650 14757.971226 12506.004665 18804.571890 17034.212722 17512.308838 19565.849175 13089.843921 17371.017238 15807.032756 14770.376638 8544.784983 13066.186306 12035.827087 20461.253267 19974.835379 18275.568668 17157.265556 16605.044728 14799.144581 11697.327631 15443.847211 10265.337415 12112.712673 14262.397035 19976.900799 15951.020274 15460.013816 19483.178446 17308.726815 17484.393202 15654.078620 13626.754841 16592.582257 14484.127231 10769.883927 18715.317279 17445.645582 17214.558083 15011.532761 17662.920262 16353.850633 16654.988298 13725.473787 16394.814463 14428.813604 13951.643702 15981.045004 19129.185665 19769.898512 18123.576195 18580.555676 15490.079366 15104.792817 11732.241511 14316.181595 14126.689523 14439.834764 17973.679491 16259.553161 17595.717598 15622.913288 16021.671804 18354.633293 15114.977548 13501.729563 12843.242926 15325.491392 11529.427244 18440.319633 20912.476596 18985.856669 17211.051998 21688.518635 18234.061931 13816.957263 15874.368627 15368.991046 15972.787318 14600.624687 19868.111631 23135.579459 21357.508601 18305.350284 20110.084744 22162.438566 18188.933673 17382.389611 19033.824516 15046.771709 11070.100254 23180.234527 24493.741469 20287.065151 22275.567827 19292.795457 18205.868181 17877.807949 17731.687641 16607.097769 17341.995540 14435.225827 24642.073753 25937.860418 23195.189946 19663.927241 22679.215263 20484.722912 20149.296345 16222.037394 17737.475564 14310.485161 16502.968790 24169.017001 24589.212903 23938.838669 24960.669521 18839.511146 19174.688960 20588.550947 21635.612795 15517.754683 19348.956283 17536.759499 26964.811711 24078.320810 25389.682196 23581.659151 22655.625484 23452.229596 22792.276834 20543.656094 19108.534021 17507.956093 18371.999729 28680.111160 28696.356390 23822.494935 27260.099948 23044.270282 22400.046548 24427.217438 22831.747218 19543.291909 15820.506907 9291.365694 29306.442732 26628.310457 27127.086007 26548.381922 24345.540141 24926.348147 18095.889175 20006.991217 15178.027485 15627.101384 12006.405599 33658.890539 28539.267230 26438.019346 26072.293479 22882.630991 21811.298044 19729.127257 16273.430476 9736.340174 3351.615040 -3251.174436 31634.961053 32193.815713 30111.031491 29690.729892 25686.264220 23513.102957 18036.693932 21075.982303 7360.127322 7246.452663 6697.232846 35665.699632 28891.395912 28297.037295 26964.874397 20652.488414 21439.720864 15626.471865 16617.688109 6307.032027 3582.982511 12926.300065 33195.972296 30217.374921 31721.420181 26900.375727 25255.779646 22761.521143 18947.058538 13959.349599 7550.855928 8390.425791 8155.710355 35621.282688 33251.552042 30119.947514 25357.156139 25060.026368 22593.625954 19282.453664 12872.368223 6375.645703 7593.852642 677.493737 34078.547650 34003.237651 32463.501777 26466.318630 25189.621688 22986.324487 17689.231741 7122.769112 8396.419632 7489.463229 3453.379469 34659.531341 34376.741241 30481.480049 30095.747755 22685.462953 20086.515767 12297.364553 7805.246918 13801.740101 11522.188241 -6507.554003 39211.714182 36699.232049 31439.487526 29551.592495 22423.683035 22333.638581 20928.200159 14388.370303 8647.857224 3357.010502 -5375.817025 37452.028224 32432.344754 30301.986609 28438.947578 22351.397029 21165.027197 24161.101094 14789.167736 9311.872039 10301.515940 -4415.591856 36887.189047 32606.191537 32065.628072 27625.262742 24237.942730 22426.323593 17506.461729 7429.738681 6693.353764 12932.272636 6156.272843 38169.675176 33746.501106 30556.878646 30725.740609 28101.999065 19212.755578 16548.337443 20222.362069 13237.346793 12049.059018 -11994.895596 37411.782517 37436.719002 34697.237161 29069.976577 26694.719412 27215.856749 23121.534060 12500.711560 15196.115314 9172.269554 8490.471597 38994.976122 37968.610191 30456.352657 27137.639829 28462.040054 23258.109125 21393.478936 11767.071797 11883.817966 9585.333229 19828.151288 41973.172916 36076.611922 33900.468441 31976.667647 27378.347315 21908.408697 18540.339391 19816.624550 16240.059168 9695.913760 9044.389344 38324.914706 36079.842435 36628.130440 31949.882352 24124.192188 26163.886092 24902.948526 20586.839732 17677.249270 12556.679250 2108.186402 37354.087632 37294.748722 36578.131182 32013.041837 26845.873304 28620.526090 19868.852283 16835.352855 10800.666316 14695.500502 13529.609331 37622.560474 38474.163338 34222.902180 32407.575218 26658.656786 28565.471334 22581.920656 16027.145781 13702.031384 15982.149534 8576.974338 36649.409885 37994.427223 33749.595237 35685.903639 27411.865270 24710.709895 23641.334807 18134.404351 17570.852276 19393.342364 14629.607425 38258.687212 38275.999742 35837.610701 35581.497698 28467.571415 22912.512205 26661.578304 18801.842677 13496.524663 13232.474509 8504.247091 37154.222964 39475.528691 34573.715831 34367.892278 28423.801358 22680.004057 26944.173194 20302.832439 14378.034436 10791.901729 9215.595089 40572.061138 38951.046229 37075.941854 32538.262385 30953.494816 24685.914924 25281.318843 17736.423130 13670.741712 14034.551421 14193.295166 39150.353862 38079.491339 38775.398728 31402.079111 31704.190563 27438.115190 22215.037980 19305.308884 15238.271477 15140.980841 7657.011040 38439.462780 36740.415977 39605.170250 31433.187411 30409.756231 28624.198215 19602.300272 21488.005488 15331.049154 8772.977815 16853.927935 38024.563346 38414.648122 39029.536405 32801.656253 28008.489562 30173.999968 18498.086664 21448.760242 16434.377551 9970.964155 7574.734489 38208.480231 38618.758398 36910.800395 33970.408550 27040.172561 31291.066377 20052.406287 20248.616348 15380.412253 11779.891426 5948.576577 37355.180503 39713.484861 35527.496129 33889.337800 27844.591332 30254.264417 22691.300971 17989.189145 14803.939062 12734.222618 12543.204988 34741.414978 39647.964875 34247.207070 33281.475279 29038.368776 27173.401666 25043.122398 14459.384293 16322.238316 16145.673085 8887.503081 36353.346276 40401.943910 33411.924772 32478.259474 30261.166287 23971.527278 26363.287642 12451.097473 17853.409506 17514.842835 16245.511146 34864.851393 40351.224719 32793.457820 31805.930161 30305.024725 22888.044100 26329.775592 13777.732621 17149.892787 18326.306412 573.460291 36657.799486 38715.268709 33289.237919 30969.333594 29898.494018 23036.279656 24869.125465 16621.080765 14335.789565 18015.172580 8220.873534 35705.228874 37951.667582 33340.863368 30431.492876 28978.052980 24007.704442 22319.527006 19202.485947 10232.890712 18784.196018 1771.590333 37153.670988 37305.555340 32751.290125 30411.299362 27934.706375 24498.110063 19721.899465 21930.238704 6144.177560 19448.759736 6472.647469 37284.795733 36663.205838 32639.988082 30262.875681 27193.953425 24519.173370 17995.440371 22381.926267 3852.909473 19838.201861 7122.825954 35084.839397 35867.580861 32638.972358 29948.180479 26803.481784 24240.523481 17392.333538 21826.490538 2946.061854 20333.935682 13848.849887 35921.979495 35067.912654 32610.443967 29741.094283 26512.548947 23984.006505 17193.612783 20654.749976 3479.980657 19351.524037 15825.026658 35632.019689 34863.141850 32216.104484 29487.661502 26241.559569 23196.812873 17120.676219 19203.969194 5214.354892 17098.742735 14725.153552 35558.122760 33949.932624 31804.464813 29205.091180 25875.163675 22669.871274 17588.658168 17790.113129 6975.581007 13327.627347 14442.060540 34666.375108 33414.385869 31240.060338 28792.853197 25416.232141 22090.805146 17601.608394 15837.574047 8108.228688 9913.365014 13100.779645 33525.646266 32642.181923 30489.805751 28263.041052 24930.416258 21489.765282 17645.868671 14511.978225 9234.986899 7277.485516 11911.941223 32538.091009 31945.300000 29793.315168 27666.922556 24458.329350 20910.990310 17628.298228 13388.202845 9894.246016 5642.772631 11642.309221 31882.537832 31535.082770 29204.315592 27041.479086 24037.734589 20409.196559 17478.784034 12597.249003 10471.890204 4774.841305 12061.431064 31728.476437 31036.120060 28735.087372 26507.390193 23643.783453 19932.592649 17253.012648 12201.601085 10809.321443 4338.750859 12432.197028 31322.127280 30690.609923 28328.573773 26038.253315 23282.239920 19526.097975 17137.044092 12128.130725 10812.666330 4415.672048 12132.832063 31056.590316 30169.779650 27836.862998 25571.111668 22970.692400 19191.707169 16712.045328 12069.620539 10413.139359 4842.290248 10820.645923 30404.355715 29690.578921 27338.691466 25049.352001 22656.945857 18857.105299 16473.920133 12260.875043 9964.601676 5388.429031 9018.384707 29831.199935 29154.617101 26970.332869 24526.207322 22329.176007 18526.086018 16153.313182 12250.921406 9352.161540 5787.749095 7358.579679 29344.830440 28586.042788 26567.665081 24052.829596 21985.319857 18229.305711 15792.711542 12199.554913 8947.107802 6077.388166 6056.162927 28766.621552 28115.580920 26217.111986 23627.787876 21639.738917 17975.676206 15429.099729 12082.373453 8528.738712 6083.618629 5003.096931 28397.378030 27598.493561 25871.834239 23259.681549 21304.446584 17767.672486 15071.614858 11930.193143 8240.899273 6001.240775 4402.535609 27977.653333 27230.632983 25600.242224 22939.157084 20977.502421 17606.140337 14731.476743 11741.437766 8002.645902 5866.812935 4035.719355 27707.619367 26916.699723 25421.052047 22714.283276 20673.456453 17502.830587 14439.176327 11574.201148 7837.533841 5720.694933 3833.617189 27558.201962 26625.863453 25270.912364 22604.907325 20409.684229 17450.361241 14225.705029 11453.821011 7762.380567 5617.318005 3755.995511 27452.017106 26404.730685 25103.340789 22565.945757 20222.345867 17440.139478 14108.566506 11402.234436 7763.177266 5559.685285 3763.460057 27483.025062 26419.034372 24994.879333 22627.651166 20116.805031 17498.465834 14089.446832 11427.041402 7834.007139 5555.803102 3831.839160 27613.185399 26392.545540 24970.620285 22749.869482 20092.229956 17589.360778 14165.347771 11519.471604 7954.585483 5598.824321 3946.162143 27701.674383 26623.592663 24997.482436 22935.762392 20173.102072 17751.763324 14322.872482 11680.044258 8122.374513 5678.903278 4090.488361 28027.136549 26703.954429 25063.499388 23171.751022 20309.540457 17958.309090 14542.318427 11878.246998 8321.043741 5791.336401 4241.997166 28201.500198 27008.004679 25251.626534 23432.673776 20563.952540 18231.044248 14828.108611 12114.813785 8547.586404 5930.347089 4376.683272 28329.494912 27322.386193 25407.021168 23716.290095 20838.941322 18535.625953 15127.946206 12345.047661 8779.385969 6076.444551 4474.952273 28661.484170 27490.866421 25729.211827 24018.471127 21166.985407 18867.731721 15449.459367 12572.138290 9009.105597 6211.946477 4527.928214 28556.248684 28079.485746 25978.742912 24310.066748 21483.356573 19163.784007 15721.299225 12724.896773 9189.359486 6309.242651 4532.686629 29134.976599 28031.564499 26264.913450 24574.520373 21733.281601 19392.142575 15952.479602 12835.312368 9329.767063 6378.639210 4509.259770 29035.445725 28636.673735 26573.395995 24860.802681 21949.488349 19541.025279 16090.951955 12850.828047 9374.310241 6384.105377 4459.751256 29610.617626 28527.894567 26747.409811 24921.223019 22022.647354 19541.719211 16167.367840 12819.164152 9392.196528 6388.605440 4423.742781 29752.540120 28996.566604 26864.383827 25192.514088 22163.393010 19540.554085 16188.458747 12771.360377 9344.146011 6336.334890 4400.279414 30162.858603 28847.233439 26915.104433 25073.381455 22061.708515 19435.622060 16208.400119 12679.532236 9307.475376 6329.970838 4357.104500 30018.073863 29225.772381 27061.918168 25326.874066 22290.060151 19361.676997 16257.976027 12704.926055 9312.710992 6340.810057 4415.233749 30523.519643 28988.350598 26793.465066 25155.247847 22156.990653 19431.686202 16289.539028 12704.072199 9240.049811 6277.440120 4326.787350 30028.135187 29192.583371 27262.048672 25360.167102 22398.775675 19311.910314 16377.500674 12791.520124 9448.818439 6556.072046 4491.988165 30157.457247 29103.725977 26799.622190 25050.385925 22442.604389 19453.891644 16559.395371 12770.793551 9243.934993 6129.838306 4382.816510 30250.510421 28785.498285 26610.111204 25482.318792 22355.541135 19365.315603 16261.265269 12872.090084 9595.146578 6935.544085 4475.634057 29671.664156 28921.789265 27290.154645 24492.294434 22161.692239 19289.872718 16540.845124 12760.936747 8771.729196 5983.366036 4512.023356 29590.863308 28823.424575 25929.054346 25166.973890 21958.092042 18722.030233 15992.416746 12256.380316 9991.534835 6528.498937 4730.538036 30993.555947 28361.203854 26070.602637 23936.277060 21726.767748 19092.701668 16160.759860 12593.024285 7826.472080 6096.610691 3917.331699 26597.558869 27444.958393 26243.763139 23778.700980 21097.300237 17094.432838 15621.917370 12695.758148 8968.215125 5909.538008 4851.884486 31560.987565 27356.642233 26198.306738 22732.261732 21587.286713 18359.608844 15225.359068 11197.233441 9152.877502 5570.195479 5523.462189 28472.576166 28052.516819 23617.723263 24385.602167 20545.946088 17505.979610 14808.762949 11333.762328 7052.104900 6529.898045 3523.038640 27146.462065 26149.044235 25883.341648 23241.793278 20464.764301 16558.745818 16923.469387 12523.370261 9514.113559 5179.889010 4695.775089 24880.238730 28269.960518 21726.921314 23072.959070 17537.239951 16717.530902 12594.781354 11477.570398 8744.294990 5297.932464 3327.313956 25017.347666 23125.961770 23900.736713 21337.587949 17801.352597 14775.435135 15697.118846 9874.074913 8204.821993 5035.458925 2638.376993 23723.656557 24030.701864 23110.616843 20729.384203 18122.712509 16625.865347 13355.026866 10387.967187 5607.153244 4309.081394 2289.895294 24231.989659 21655.790201 20491.486848 15881.269888 19078.872876 12772.163015 12659.311472 9740.442681 6034.500469 3944.744107 2430.961083 22299.810449 24781.643147 24680.735849 18616.746772 14605.144242 15666.741491 9114.245917 6037.068863 5892.345883 3003.606578 3240.775507 21805.883266 20350.326313 14358.011519 20412.567627 16167.997574 11863.253185 14632.808161 6856.427861 7112.773856 3227.546529 876.127976 22339.868162 22711.899512 19661.322437 17947.161398 12794.933208 12062.013836 8365.654445 6123.467185 4503.191757 3287.398806 1679.686883 20536.230949 20950.120567 18285.650760 18561.178578 13926.365431 11373.490887 11098.026156 5506.694851 8100.642731 5540.951163 1955.323707 12115.500095 11683.284396 10802.564045 8413.097455 7771.329770 11367.417695 6942.869547 4901.686855 6765.597772 5483.153297 2891.882286 388.870530 -3305.605111 -6461.475580 14955.622021 10087.630993 9779.298950 13835.827813 8145.174567 10725.375535 8990.754395 8468.827590 6246.181382 5747.767782 5715.698651 2932.607771 1874.617577 1025.657744 13503.026299 12836.429951 11376.842958 10298.904642 8943.019284 8839.541752 9762.604685 8410.519579 8914.299190 8280.393981 4417.665343 2888.251224 2143.747002 2335.281743 12466.076989 13250.650102 11640.162596 10503.789813 6649.528808 9882.610621 8291.250622 5951.963113 7556.471422 3900.000964 4690.221728 1481.006674 2551.048294 2041.188458 13319.466703 13311.364326 13341.574317 9587.539204 10927.577317 8739.399618 10217.480360 6862.411135 7117.156585 5384.459460 4293.733293 1070.976604 1786.639867 2026.807631 9838.748463 10847.733411 9073.831044 9783.668196 11477.611407 9770.907864 7551.466782 6846.949917 6194.538580 4920.020610 6324.634445 1174.268378 2103.497071 2532.427238 13247.846802 13264.313374 9980.149598 8327.474032 9737.807453 8496.958941 9805.572850 8244.047341 6204.360869 7693.757740 7297.712120 2013.405769 1580.293079 3666.074224 13101.169053 10582.169470 9568.482122 10380.973148 7935.614220 8613.062935 6230.278827 6334.143685 4214.135168 4067.968991 3378.600467 1687.909874 1785.171372 1841.520288 14423.994255 14383.630803 8480.391127 9273.641548 10839.815485 6258.154846 7263.245656 4417.848462 3277.399449 6229.891872 4622.284523 -1424.887511 437.802428 2484.587132 12833.102921 12784.974773 13011.477216 12765.680163 11789.805641 5813.589654 9295.711818 8681.989927 6390.049171 4532.858323 4021.412125 -1011.162200 2126.244603 2861.711297 15352.372911 16392.816915 13898.235171 10026.669970 13226.112627 6528.308738 9852.716968 9833.606421 6873.699588 3685.410254 1215.284088 887.558312 2082.877607 2609.892839 16420.908483 13356.850550 13376.204497 16609.256197 9867.324916 7872.751676 4304.821425 10898.728948 8113.686366 7836.119312 4268.050498 2947.948247 1451.194486 2989.512151 12493.612690 17472.385893 2872.486100 12393.832527 11338.269876 8732.375805 11191.746978 12252.390571 12520.872344 6771.652472 8030.089034 5654.127114 3806.692587 4315.354072 697.467802 6662.859883 10250.054004 15465.415607 9288.324585 7779.149214 6776.482354 14829.724572 4404.840248 8457.250058 8369.279237 4381.148621 6535.014317 5979.607806 2214.778433 1284.273936 2600.345842 6812.666416 -2132.684912 8413.169701 7164.994181 6663.293909 2033.464512 7005.476864 6236.175241 2203.335717 4539.661232 7470.236800
</DataArray>
<DataArray type="Float64" Name="Velocity" NumberOfComponents="3" format="ascii">