<VTKFile type="PolyData">
<PolyData>
<Piece NumberOfPoints="1945" NumberOfVerts="1945" NumberOfLines="0" NumberOfStrips="0" NumberOfPolys="0">
<PointData>
<DataArray type="Float64" Name="Pressure" format="ascii">
 32587.900287 27830.025657 24825.306958 20396.730009 23699.298512 20084.178469 29006.215406 23925.042680 28679.871529 20378.889560 26085.796703 18819.602798 25574.342766 19339.737670 24190.460340 17843.416424 25200.329272 19915.010923 24207.373111 17322.729945 24814.244593 18580.109194 21857.051527 17027.276565 23498.490349 19472.181301 25759.306647 22892.069095 22943.403384 20181.757029 27336.430029 25563.061577 25922.442912 24865.461397 23463.624308 22837.564955 26862.899099 25792.349928 28900.760533 30082.271093 25061.252975 23830.459265 31204.763957 29796.146223 29417.651787 27727.249383 28636.688666 27189.086885 31850.079819 31671.320159 30472.416056 29468.059925 29886.972248 29222.311050 30528.586965 30942.258689 30735.704057 31453.306185 31293.832464 32822.125816 30878.531123 32882.022803 30672.347838 33435.738264 30610.800398 33464.670603 31179.648824 34380.806437 31520.774088 35136.435036 31696.446245 34993.665472 31437.583905 34856.762847 31334.191333 34339.976562 31458.548512 33527.982022 31678.496028 34041.260545 31783.505635 33775.615743 32315.755547 34043.969569 33242.360872 35802.365113 33913.647461 36503.582015 34497.805995 36655.380930 35022.382308 37271.072204 35435.444030 37554.115833 35742.878201 37684.628435 35965.773352 37711.863769 36161.377479 37710.891490 36375.174756 37739.555219 36655.702823 37870.643242 37015.623120 38134.242290 37436.401552 38526.531902 37880.257997 39049.695798 38285.607646 39647.052846 38618.126963 40240.057298 38859.615617 40773.676127 38988.796518 41197.434024 38983.630591 41477.996213 38843.174525 41617.610417 38580.169327 41659.296804 38182.924878 41442.210546 37632.329435 41196.246251 36935.555033 40783.694561 36108.257610 40177.512078 35194.278558 39404.210222 34226.762320 38470.636024 33231.955839 37424.449550 32249.522524 36337.431323 31327.760594 35312.401248 30449.744120 34290.452943 29634.437122 33561.275624 28908.446498 32708.029880 28239.307344 31887.016277 27634.749706 31110.428757 27091.338346 30377.953764 26604.108395 29674.764717 26175.304161 29022.384240 25776.655895 28378.278453 25412.346936 27784.556746 25054.879029 27202.719425 24708.788737 26660.178006 24360.329076 26188.326995 24002.985284 25719.356811 23645.383182 25411.526824 23273.518591 25044.475674 22943.906191 24962.648561 22556.107638 24697.170823 22323.756324 24826.581290 22089.493642 24923.881991 21771.941522 24891.363441 21564.919582 24925.722038 21584.775920 25168.377214 21642.017299 25249.615533 21443.368862 25354.903637 20893.308900 24634.610959 19875.256051 23465.595523 20208.298655 25131.154087 19490.644857 24312.646781 17431.528751 21673.919872 16937.962623 21206.498398 16442.691378 21490.686170 14677.379938 22123.795843 11488.664730 15967.737319 24828.851589 23471.413639 20698.346506 17952.197074 18608.672949 17723.623794 15106.553240 12263.737190 10544.148874 8830.524627 7228.965364 5796.820216 4587.349699 2925.544104 860.956907 -144.344171 791.677779 -126.622197 -3763.183838 -3573.790395 -4431.237003 -7170.490803 -7817.247914 -7051.701029 -6182.647309 -5285.090061 -4426.574338 -3648.426625 -2969.114033 -2390.179012 -1904.265813 -1500.792496 -1168.934873 -898.760623 -681.416714 -508.981738 -374.292930 -270.853087 -192.816796 -135.017742 -92.998015 -63.014233 -42.011024 -27.564296 -17.803204 -11.321672 -7.089195 -4.368108 -2.641743 -1.556768 -0.891001 18430.800202 17401.097423 14468.225984 11752.521625 13240.734359 12170.117048 10216.820048 8096.919375 8062.999815 6503.183294 5584.404949 4664.434677 4370.933297 3000.371528 189.578546 -1976.770202 -2496.403325 -1425.190434 -5295.100218 -3684.392792 -3824.266703 -6507.974340 -7925.133449 -6955.716623 -6152.790394 -5287.509967 -4441.928441 -3668.849387 -2990.325769 -2409.997632 -1921.842709 -1516.003658 -1181.960314 -909.853172 -690.807118 -516.859308 -380.816902 -276.169264 -197.068736 -138.350394 -95.555643 -64.935520 -43.423815 -28.581526 -18.520654 -11.817538 -7.425072 -4.590792 -2.784806 -1.637394 -0.877778 24454.510991 19784.126041 19068.331787 18406.450217 14287.837078 10866.205338 8153.414373 6168.752931 1909.940703 -2124.149605 -2230.335154 -1423.368059 -150.130484 300.868270 427.350940 383.919874 281.008017 178.580954 100.144320 48.811887 19.176402 4.061361 -2.537409 -4.707784 -4.863108 -4.261807 -3.480638 -2.744111 -2.117914 -1.607116 -1.198924 -0.877939 -0.630023 -0.442558 -0.304132 -0.204462 -0.134511 -0.086644 -0.054684 -0.033843 -0.020554 -0.012260 -0.007188 -0.004145 -0.002353 -0.001315 -0.000724 -0.000393 -0.000210 -0.000109 -0.000052 17142.909622 13601.687905 11341.870914 10027.115906 7877.400988 5782.506411 4218.298841 2755.320052 905.363533 -882.454387 -1254.425766 -803.096494 -169.067316 247.610454 390.185702 367.233755 277.772506 181.702189 105.019207 53.187663 22.326126 6.024163 -1.452657 -4.176466 -4.639211 -4.189382 -3.473426 -2.760085 -2.139245 -1.627482 -1.216672 -0.892944 -0.642501 -0.452741 -0.312245 -0.210743 -0.139228 -0.090080 -0.057113 -0.035512 -0.021670 -0.012988 -0.007651 -0.004433 -0.002528 -0.001420 -0.000786 -0.000429 -0.000230 -0.000121 -0.000061 -0.533847 -0.383507 -0.484862 -0.353837 -0.324455 -0.264836 -0.173556 -0.169118 -0.097930 -0.099744 -0.055525 -0.057333 -0.031318 -0.032493 -0.017519 -0.018219 -0.009714 -0.010119 -0.005338 -0.005569 -0.002908 -0.003039 -0.001571 -0.001644 -0.000842 -0.000882 -0.000447 -0.000469 -0.000236 -0.000248 -0.000123 -0.000130 -0.000064 -0.000068 -0.000033 -0.000035 -0.000017 -0.000018 -0.000009 -0.000009 -0.000004 -0.000005 -0.000002 -0.000002 -0.000001 -0.000001 -0.000001 -0.000001 -0.000000 -0.000000 -0.000000 -0.000000 -0.000000 -0.000000 -0.000000 -0.000000 -0.000000 -0.000000 -0.000000 -0.000000 -0.000000 -0.000000 -0.000000 -0.000000 -0.000000 -0.000000 -0.000000 -0.000000 -0.000000 -0.000000 -0.000000 -0.000000 -0.000000 -0.000000 -0.000000 -0.000000 -0.000000 -0.000000 -0.000000 -0.000000 -0.000000 -0.000000 -0.000000 -0.000000 -0.000000 -0.000000 -0.000000 -0.000000 -0.000000 -0.000000 -0.000000 -0.000000 -0.000000 -0.000000 -0.000000 -0.000000 -0.000000 -0.000000 -0.000000 -0.000000 -0.000000 -0.000000 -0.000000 -0.000000 -0.000000 -0.000000 -0.000000 -0.000000 -0.000000 -0.000000 -0.000000 -0.000000 -0.000000 -0.000000 -0.000000 -0.000000 -0.000000 -0.000000 -0.000000 -0.000000 -0.000000 -0.000000 -0.000000 -0.000000 -0.000000 -0.000000 -0.000000 -0.000000 -0.000000 -0.000000 -0.000000 -0.000000 -0.000000 -0.000000 -0.000000 -0.000000 -0.000000 -0.000000 -0.000000 -0.000000 -0.000000 -0.000000 -0.000000 -0.000000 -0.000000 -0.000000 -0.000000 -0.000000 -0.000000 -0.000000 -0.000000 -0.000000 -0.000000 -0.000000 -0.000000 -0.000000 -0.000000 -0.000000 -0.000000 -0.000000 -0.000000 -0.000000 -0.000000 -0.000000 -0.000000 -0.000000 -0.000000 -0.000000 -0.000000 -0.000000 -0.000000 -0.000000 -0.000000 -0.000000 -0.000000 -0.000000 -0.000000 -0.000000 -0.000000 -0.000000 -0.000000 -0.000000 -0.000000 -0.000000 -0.000000 -0.000000 -0.000000 -0.000000 -0.000000 -0.000000 -0.000000 -0.000000 -0.000000 -0.000000 -0.000000 -0.000000 -0.000000 -0.000000 -0.000001 -0.000001 -0.000002 -0.000002 -0.000005 -0.000005 -0.000014 -0.000010 -0.000026 -0.000016 -0.000032 -0.000021 19227.165888 18542.642261 16840.840706 14974.123046 15274.609353 13462.521992 12562.101138 12519.112730 11951.569074 9934.732909 10314.059140 17223.472568 18975.438467 17070.620813 16953.363641 14503.062533 14427.783350 15481.735062 15130.632401 12151.123216 12472.878242 12021.925289 18562.053830 17346.742132 18818.986581 13730.181995 14607.629154 15467.710681 14456.746993 12450.364366 10941.022778 11775.532094 12418.418349 16854.281688 19286.226953 15625.450742 17754.826499 13247.074061 16768.064769 15095.471646 14095.194057 14153.457294 14517.585955 15435.035899 17191.152335 19084.296821 18758.893989 17311.912166 16596.200885 15956.511926 16843.832602 15530.698785 16311.950789 13040.356991 10370.541470 19048.700374 19877.688322 16128.401758 18817.186309 15822.676445 17463.392377 18248.381908 13855.288734 16242.325674 14231.763875 17400.231562 20333.010542 21049.304286 20138.506493 19095.617958 18115.406238 16080.529143 16650.157471 16528.226881 15307.143294 16967.340313 13994.515150 22390.973633 22116.244069 19868.742064 19098.005200 20917.190197 18489.015474 17595.255291 14834.100448 17368.526659 15725.635346 14561.544106 23597.261615 23734.117097 22689.819861 21392.407679 20108.440070 18045.209173 18426.021511 17933.024630 17376.841936 13457.297052 11371.832881 24721.494741 23960.882307 22138.072972 21215.465167 19801.444953 19211.721409 19627.308409 15908.938245 15878.963208 15820.981534 11858.367296 25964.274488 23450.966192 23965.260240 20959.343720 21742.098179 17697.773700 18690.597427 15364.969902 14621.993235 13822.010190 12748.169068 26337.925852 24585.989067 20970.774107 20768.872884 19161.275901 17933.315000 15857.274549 14051.819912 11743.363973 13129.869776 13477.223836 25610.484992 22639.236798 22570.234218 20489.576079 19699.848044 17290.346811 17297.950814 14546.637295 14628.882445 12620.557667 15612.789138 25691.275471 24474.652507 22294.688528 20995.040993 18278.986899 17486.164578 16933.362887 16461.312513 12778.288289 10317.025402 6124.746755 26060.650418 23995.268417 23378.535975 22555.314067 19077.347801 18842.474484 17745.597266 14593.658431 13967.848746 10623.160341 5580.022504 28093.953790 25502.501087 23510.823991 22260.540738 19983.871051 20182.510997 14215.126542 14617.927474 13147.154693 5501.512582 2024.019960 27774.800876 26308.064656 23572.091745 23759.373755 20920.647146 20515.945061 14140.541287 15127.327687 6974.377319 3825.099741 -14834.872477 29423.808781 25645.868871 24664.730073 22753.392546 22875.968554 16225.563212 17914.503068 9053.908388 6963.677839 2516.412019 -15880.366604 29759.345030 27013.850488 27000.338380 23073.155003 22829.495110 16073.382362 12686.528024 10235.851802 6005.538429 3751.978752 -13562.141691 30374.218853 28837.259187 27027.831485 24568.585983 20045.795853 17900.430941 13206.625288 5813.515669 7734.210969 -194.754518 -10063.537049 30546.227487 29889.750577 26391.723913 25674.988499 18784.050308 18557.257676 15093.602474 5071.114863 5192.503518 -162.446215 -6235.587616 31208.278679 29998.252610 26521.423619 22642.576195 22153.339270 13227.428404 10002.204827 9995.952554 7100.829448 5154.955880 -185.173269 32667.532828 30337.300489 27201.396771 21669.710507 22461.574538 16297.298541 12422.646998 11176.682812 7189.796980 4330.414883 1605.582484 33183.193888 30796.655704 27105.072287 22224.318518 21409.780126 16635.376004 12940.058699 8416.212507 3083.828232 5640.153249 3057.204294 33869.321841 30880.263409 27919.285484 22460.329616 21291.878144 18043.004563 13092.155381 8525.662247 7701.557517 4531.588580 4799.357290 34816.261461 31215.506949 28591.671274 22970.472436 21240.852304 17501.437598 13778.576624 12125.211760 8595.234362 10115.498254 687.826291 35318.237714 31893.371963 28887.023206 23937.805319 21376.497771 18366.189772 14408.708358 11883.714525 9638.305077 4632.632521 3806.117384 36140.478965 32849.420580 29139.676876 25462.441479 21322.539462 19439.477518 14798.290094 11805.412966 11792.801761 4184.771968 6311.298981 36584.296929 33418.848761 29375.775197 26892.172952 21633.710288 20654.412742 15819.672018 13156.071577 9316.638777 9637.957244 5535.678731 36084.653661 34116.811633 29666.931847 27730.061982 22595.668039 20676.642363 17816.752891 11925.038826 11908.439585 9792.142533 456.866605 36646.097016 34298.748524 30667.652576 28156.225894 24166.691322 20157.672162 19444.369973 11537.336206 13488.526847 10165.276237 9863.772793 37033.735932 34986.358743 31543.459230 28227.049267 25770.020685 20437.679282 20119.764631 14265.029620 12898.284915 12178.977902 3079.457714 36735.052277 34830.349972 32398.425070 28738.282923 26496.310550 21497.556533 19911.921663 16747.015437 10670.576188 14794.434430 13091.052772 36429.288915 34628.801002 32843.993781 29513.570664 26836.823589 22918.348314 19585.319440 18180.964372 7317.899874 16761.645688 12173.254401 36866.085175 35093.267022 33004.642902 30256.176543 27067.515100 24283.773521 18726.213907 18834.774441 5709.298410 18033.949299 13602.812027 37308.198989 35465.032987 33252.059895 30846.933315 27101.068181 25119.219237 18465.457936 18990.088509 6734.524287 17553.512427 16957.748445 37064.664050 35504.470837 33598.957594 31267.363508 27284.018108 25473.185074 18502.446666 19539.330904 8079.764465 15180.381718 16097.461774 37046.169537 35708.291623 33890.983518 31571.025880 27567.398372 25565.441987 19096.741068 18665.895176 9696.730012 11294.179785 16204.626135 38008.375353 36194.795715 34211.746155 31829.882589 28079.678795 25526.795026 19763.978729 17707.991108 10673.088738 8644.984029 15390.413253 38716.261411 36403.418559 34604.616569 32043.693797 28463.379951 25221.729076 20352.873134 16964.239731 11394.372036 7526.900355 14908.079149 38839.088456 36758.246891 34941.904850 32236.211613 28851.083644 25232.307756 20968.051183 16731.991229 12164.037690 7369.501048 14489.980003 38506.337146 37111.127781 35222.851346 32454.123934 29289.203413 25443.340279 21601.982964 16946.283796 12731.535164 7703.532458 13724.185781 38685.435156 37458.829150 35486.359661 32672.959992 29743.299706 25710.798789 22044.030432 17344.654932 13030.255557 8247.568909 12368.838058 38879.910229 37662.958127 35716.370845 32842.062106 30051.070048 25899.978989 22198.344215 17757.991337 13079.621248 8706.001018 10587.895665 39056.112174 37756.183641 35899.997838 32965.826566 30241.360248 26059.091358 22162.707178 18121.318085 12982.186263 8927.468045 8974.841285 39229.870681 37769.547360 36042.912061 33070.498503 30096.896360 26244.497341 22104.058736 18380.952357 12858.712059 9100.222557 7719.183038 39409.316860 37725.359354 36180.607763 33188.997318 30088.702832 26748.187540 22031.607868 18509.338556 12773.628739 9060.394395 7027.377480 39612.093254 37692.523459 36329.351277 33346.821417 30081.508531 27056.790565 21687.165088 18406.281962 12632.917452 8874.651246 6677.118279 39865.055603 37749.649030 36503.900281 33514.593832 30021.827773 27266.578468 21441.807481 18469.202329 12641.216982 8651.599374 6509.425961 40203.876392 37907.851780 36703.019476 33690.135273 29887.199006 27280.755621 21200.526332 18287.083645 12267.396371 8376.123709 6415.571020 40580.652780 38089.760834 36851.857184 33846.627544 29704.389510 26800.842294 20957.315773 17967.092679 12243.121982 8389.534816 6282.915390 40991.214415 38302.790818 36922.539363 33980.352054 29516.226798 26619.248567 21141.188811 17451.563501 12199.864552 8127.906322 6201.220684 41455.769166 38892.961647 37060.685785 34170.234362 29481.476766 26597.242420 21243.718757 17361.522608 12570.771131 8099.272884 6227.676088 41845.307994 39376.810546 37304.700705 34475.050781 29676.767611 26758.926023 21586.888683 17545.525128 12865.969374 8274.109623 6331.958931 42353.276361 39933.817149 37648.427908 34897.391648 30100.443392 27120.272045 22144.885235 17915.992398 13259.826369 8561.594007 6477.627556 42787.433520 40478.523812 38043.957049 35395.670501 30688.906491 27623.886364 22823.967617 18393.802289 13695.132424 8908.007916 6626.390628 43096.950070 40969.604156 38454.830800 35882.651831 31322.102633 28147.545985 23487.953869 18866.692048 14086.213722 9237.434020 6733.566393 43259.282526 41345.215591 38795.368803 36249.984827 31863.638154 28561.937237 24007.876734 19226.451320 14353.381140 9483.659205 6768.570979 43264.782007 41519.717024 38992.086279 36436.524333 32208.568966 28774.896496 24301.994567 19407.931494 14456.349946 9613.346207 6724.275116 43140.136316 41491.886142 39013.483167 36411.168468 32313.480425 28758.494010 24356.092358 19404.671530 14399.885243 9628.578323 6614.634269 42886.173623 41281.265306 38854.286761 36179.465445 32203.868920 28547.300808 24209.479729 19253.018080 14220.729994 9555.817191 6464.378469 42561.628152 40920.734240 38541.846237 35796.143327 31929.483347 28197.009739 23922.510678 19003.861827 13966.028201 9427.988223 6296.782192 42109.058087 40423.988770 38082.588478 35298.777675 31534.521354 27757.176050 23548.571549 18697.180769 13672.274531 9270.010480 6126.180141 41523.871974 39798.311258 37495.748632 34706.228360 31045.837723 27253.563760 23116.358622 18351.375075 13356.783635 9093.439623 5956.909398 40784.947329 39031.403360 36789.613474 34022.956643 30469.247974 26689.577852 22629.787531 17966.485609 13022.115307 8899.276556 5786.790615 39877.571229 38134.987032 35971.749301 33242.212397 29800.478973 26061.123482 22084.293230 17536.378025 12665.598394 8684.845335 5612.011344 38853.378860 37154.147761 35063.563703 32373.707942 29043.854033 25368.592996 21481.504425 17060.538299 12286.700652 8450.237405 5431.447987 37760.708521 36123.432880 34097.183178 31447.274425 28220.614562 24626.979250 20834.136419 16550.120103 11891.971701 8199.970677 5248.236855 36665.827361 35053.286105 33107.257001 30493.575992 27361.657986 23863.442712 20165.280835 16023.657126 11494.734246 7943.258487 5067.704499 35481.232464 33984.223990 32125.319410 29550.208665 26500.602202 23104.216537 19502.944402 15502.315597 11108.367298 7691.323708 4895.629903 34508.656843 32973.483963 31172.967097 28641.097310 25665.541806 22370.878429 18866.857409 15002.625409 10742.820637 7451.061790 4736.627293 33586.556229 32016.925915 30262.984431 27774.238534 24869.641642 21675.210117 18267.704823 14531.854510 10403.235128 7225.097888 4591.897448 32705.909131 31122.754643 29406.039506 26962.013865 24119.634728 21018.466120 17705.592467 14088.913990 10085.903792 7011.830733 4459.265638 31872.178185 30281.465608 28589.474892 26191.345139 23406.939518 20393.877957 17173.664225 13669.285422 9785.586421 6807.213161 4334.383576 31083.123781 29493.259193 27818.609929 25465.511393 22732.540557 19799.686270 16666.268566 13266.038504 9497.872884 6608.516380 4213.242640 30311.756895 28740.992989 27066.800419 24765.315033 22083.431485 19225.241609 16178.600799 12874.787566 9218.308965 6413.759732 4093.093152 29589.786822 28030.854439 26352.644294 24099.133401 21465.433089 18671.728359 15712.102309 12498.137841 8950.566667 6225.839823 3974.551407 28862.530494 27343.374161 25655.355985 23454.681229 20873.231374 18140.939191 15263.730195 12132.323452 8692.012850 6043.025026 3859.362170 28195.448895 26701.171263 25000.948209 22837.111713 20302.237153 17632.782979 14839.375982 11786.463661 8449.013979 5871.902149 3748.199559 27535.633490 26088.200268 24382.488137 22274.277769 19776.280524 17157.376721 14437.672771 11454.444996 8213.073456 5707.812432 3644.507895 26919.426008 25499.695464 23789.575918 21719.729830 19276.752429 16717.557312 14071.444367 11147.710295 7994.779309 5550.805350 3546.756939 26399.254124 25035.078639 23324.818447 21277.170679 18847.377668 16315.753852 13728.286583 10864.025274 7791.319816 5406.309155 3458.134743 25868.082237 24491.914142 22801.561708 20821.547140 18466.099369 15997.068420 13453.816654 10621.176382 7607.184324 5268.128494 3371.186689 25567.608057 24249.912118 22553.197245 20529.506967 18154.691640 15678.641890 13188.560789 10407.514572 7462.211984 5169.871807 3307.256522 25147.164292 23768.979533 22132.129001 20208.541408 17930.945848 15524.104163 13046.455544 10274.507208 7332.359451 5050.565522 3244.272102 25106.278850 23750.632798 22092.437538 20065.268384 17729.572697 15306.504971 12842.374679 10133.445785 7277.901284 5039.664313 3212.823559 24801.863944 23340.217599 21845.966947 19869.724316 17670.868364 15293.794127 12856.669011 10111.395946 7174.323232 4920.075457 3197.349559 24970.837653 23552.709564 21908.260516 19876.323313 17548.349963 15120.639027 12659.504706 10013.659828 7216.183938 4979.925964 3165.502906 24862.580222 23135.067507 21762.998271 19728.122374 17554.265399 15255.746518 12781.662034 9972.315438 7068.701733 4834.470885 3214.232082 24918.983932 23486.149866 22012.317290 19762.887411 17506.694795 14867.422766 12477.931900 9963.172462 7095.297961 4878.988221 3078.719396 24863.197812 22965.271755 21723.495145 19491.105987 17394.341902 15302.382137 12538.268409 9781.309804 6853.264255 4789.283948 3228.060579 24880.827072 23381.186659 21858.742539 19720.048340 17124.623088 14456.140827 12282.672228 9483.879095 7020.415649 4507.944066 3115.945617 24501.410141 22914.732234 21481.879544 18692.519395 17667.638702 15033.284165 12343.374462 9983.220763 6161.216279 4767.848963 3031.528991 23950.805026 23806.480320 21955.806989 19747.719087 16349.761120 14289.190345 11238.067223 9912.705392 7154.798916 3649.471250 3312.039529 24699.406441 23527.891759 22827.298220 18699.450175 18214.582661 15665.654020 13000.597965 7613.432889 7046.948750 4086.043782 3106.564448 23991.775098 24238.913012 19096.051840 20015.173921 17547.194467 15214.394334 12807.476272 9647.325951 5642.820990 3925.708995 2729.306483 24894.713108 21003.903781 21673.675387 18815.741296 15942.539130 14077.860974 11958.194291 10344.960966 5743.173709 3907.479397 2397.408619 23077.876187 23155.364664 20711.266182 18202.166217 16525.348472 13618.113371 9339.061934 7123.608930 4793.704046 3514.999549 1875.586682 23040.392028 21996.993661 21157.080387 18378.700085 17728.736605 13152.166024 12014.646372 6467.127911 5747.369659 3586.453405 1744.165054 22945.260274 23643.023983 18555.068853 19860.772054 14263.416379 11133.192169 9891.758719 7669.447116 3837.541894 2801.547900 1955.366145 21129.781876 21429.948393 19570.999401 14824.207892 14615.478202 11305.650788 10419.551835 7651.548539 6234.504838 3836.572432 2273.431735 10126.326391 9549.475463 8009.961524 7611.130766 6967.585294 6528.848455 5772.794713 4852.564285 4406.967180 3550.483988 3475.126481 1915.511116 -220.104920 -7263.524603 11478.005358 8926.885287 8335.448447 9162.502459 8508.026262 7767.200742 7094.715126 6117.744299 5778.924721 4024.931321 3054.844649 1516.753673 191.579587 2368.698677 10127.873192 11057.405690 11035.774331 10067.527782 9710.564449 8799.347799 7965.605229 5823.171701 4691.519619 4327.198969 2940.648100 2183.180866 1032.075557 983.315090 14309.276686 13822.338050 11907.192384 11214.938144 10119.102883 8222.830288 7221.317983 6551.839392 5458.354355 4167.836287 3389.619763 1849.339427 594.659706 805.426228 16654.517539 14488.360511 12171.286099 11317.186156 10102.208421 9383.641682 8460.879244 6895.642748 5587.613432 4708.775043 3567.651233 2232.106739 1029.370636 834.085957 13833.272446 13709.157866 10392.530998 11689.920655 9923.312155 8968.134677 8489.121325 7500.255001 6177.128411 4427.410676 3288.424897 1895.051227 788.309510 771.289258 14285.496616 10414.928174 12798.919881 14883.305932 12165.095142 11141.439442 9957.206375 8076.410017 6613.280082 5568.270466 4243.703933 2677.255254 1438.166530 1149.837514 14144.981069 12147.024933 14225.718582 12749.815633 11138.970359 10078.349391 8804.212045 8429.498776 7249.942524 5414.970339 3991.941788 2232.101964 892.920353 871.852291 13481.858728 12596.476087 10446.727608 10737.436383 10685.319259 9398.163894 9558.556557 8146.577877 6846.219680 5987.567737 4431.602634 2733.225674 1628.302038 1338.342096 11233.133044 11524.003148 10316.730342 12644.403215 11374.747320 9745.238993 10455.668236 8426.143992 7483.226173 6700.629115 5040.074858 2573.936335 1285.678304 1147.230627 11118.102427 12184.669136 9872.070795 10167.630987 9501.607549 8772.742948 9206.307296 8205.822395 7964.944884 6608.288946 4767.863646 2338.446135 1761.987097 1968.013278 14322.207239 11046.876827 10405.701142 10784.792540 9294.353402 8110.294918 5881.827592 8660.922422 7586.246348 5650.559319 5049.061577 2410.647458 2642.555849 2732.288983 8139.476388 9922.498450 142.820963 9231.085748 8895.015978 7990.237121 8837.628649 7374.149831 5036.163322 4381.363058 4563.257596 4857.727369 3220.413967 2909.966482 1475.745605 5674.298259 3284.163631 6968.340943 4791.488754 2522.951924 6865.439818 6083.760081 3278.890787 5676.394237 4415.221100 5210.667547 4017.936016 3342.173153 2330.879100 -2834.700718 -344.279389 661.906919 503.637913 -809.992855 59.616690 3717.106712 4625.579770 2120.704098 4228.456179 4024.388412 3005.662478 6097.193400
</DataArray>
<DataArray type="Float64" Name="Velocity" NumberOfComponents="3" format="ascii">