<VTKFile type="PolyData">
<PolyData>
<Piece NumberOfPoints="1945" NumberOfVerts="1945" NumberOfLines="0" NumberOfStrips="0" NumberOfPolys="0">
<PointData>
<DataArray type="Float64" Name="Pressure" format="ascii">
 8179.559320 7865.180051 5764.616229 8485.197567 5634.086502 10514.467664 8978.434616 13628.484698 11652.032026 16612.263597 14297.323985 19055.012648 14003.161832 15066.538070 14971.584841 18169.139369 13466.218961 12412.060003 16068.328120 16874.213934 15879.271016 16278.613152 16925.841184 17811.824347 15984.788000 16660.600847 15690.002615 18088.614622 15561.119968 19812.811226 15820.815100 15781.277019 20035.327078 24588.169587 18866.833278 20769.524277 19922.294765 19556.725040 18294.513575 17385.526899 25101.295697 26726.316610 22302.389369 24079.031781 20880.608687 20420.734129 23515.037243 21925.876077 23001.008445 23141.918613 25359.234484 21732.366727 27961.258725 25150.931942 28462.651541 24409.129254 31564.792105 29995.707164 28335.129956 25068.464589 29138.335501 28985.304041 28115.371417 26989.238790 27915.569106 25955.615670 27620.238566 23889.921675 28838.444199 26808.066274 27736.284477 25383.877731 27885.504655 25109.860515 27414.677087 24329.961279 27458.621127 23965.945272 27782.282978 24562.924491 27995.055881 24942.054465 27392.060205 23089.086024 26515.242142 21807.920710 26103.770020 20672.849354 25868.972342 20278.790012 25921.999492 21068.746172 25492.512748 20284.375500 24929.096567 19183.357372 24536.701555 18265.532894 24187.144363 17549.574750 23881.092283 17019.448064 23518.729973 16518.160263 23126.913518 16075.621102 22665.242294 15640.343628 22169.360744 15187.851668 21655.761302 14680.755689 21169.152692 14168.614897 20726.334661 13660.910764 20348.805586 13176.988237 20044.709430 12717.402446 19832.790643 12294.337896 19722.889027 11893.537193 19727.037236 11523.109433 19856.113178 11221.841221 20105.837093 11017.986491 20471.355328 10968.192839 20914.901896 11065.556399 21414.212124 11328.454401 21947.737925 11766.722189 22483.850798 12336.369610 23014.158607 13026.865915 23526.902985 13814.812349 24006.060327 14680.572202 24472.338682 15665.396168 24897.590927 16702.695607 25303.109909 17829.625911 25693.565903 19007.753364 26011.798471 20111.164865 26336.980517 21249.488977 26582.047348 22176.899193 26807.861483 23022.099017 26988.671010 23654.011767 27132.455948 24171.170925 27205.161738 24411.319510 27282.603884 24696.199079 27286.203323 24784.618524 27322.588387 24945.705151 27404.082656 25178.481857 27413.420540 25319.623570 27544.926228 25408.815780 28132.334103 26227.681980 28328.871860 26560.197930 29041.699814 26933.097578 30036.560155 27525.704056 33006.281493 30326.026753 34186.669438 29892.154594 37058.310138 32616.015046 37502.727033 34018.945518 36318.151580 33912.524935 35603.502934 31249.608559 41179.416480 35718.963840 49297.292728 40050.459901 44691.694245 40052.102246 38602.977537 40727.402459 36352.083108 40706.572135 8700.642707 8639.192164 8127.534317 8769.169385 8304.642993 5857.173859 4518.998206 4378.342580 3328.221188 3206.334678 2760.676766 2624.726227 2520.619033 1102.684616 -642.991146 -1973.769610 -1157.499522 -7767.674387 -8827.206642 -4666.366061 -3071.555323 -7673.857070 -8740.196838 -7300.539146 -6272.508354 -5398.149649 -4596.069581 -3859.547842 -3196.168639 -2612.196198 -2108.813276 -1682.569970 -1327.050548 -1034.450050 -796.650640 -605.818954 -454.682525 -336.635738 -245.772281 -176.890595 -125.486840 -87.735535 -60.455048 -41.057244 -27.483895 -18.134663 -11.792284 -7.550053 -4.745845 -2.907944 -1.734561 13066.681143 12454.389768 9109.646525 9599.448870 8736.319793 3863.403917 1520.076623 2708.012896 -927.291613 898.918033 -246.909769 -200.235390 1333.986033 506.842602 -4709.160836 -9351.202997 -1020.553251 -8860.075747 -10655.546070 -3851.487137 -3815.080230 -10659.622463 -10013.437302 -7262.684013 -6285.628353 -5413.833697 -4611.448439 -3875.776220 -3213.210770 -2629.264128 -2125.069360 -1697.437953 -1340.251412 -1045.924682 -806.467655 -614.106716 -461.590469 -342.316828 -250.376763 -180.563987 -128.368520 -89.956771 -62.136624 -42.307259 -28.396241 -18.788430 -12.252054 -7.866760 -4.956876 -3.028647 -1.696531 36621.062170 35872.691134 33225.029194 28167.549331 23740.268428 19175.545123 16706.752287 11401.186337 14810.109810 17325.578759 8314.986804 2231.813887 516.686999 211.174768 187.934303 206.084347 199.837413 167.883998 124.962869 83.756842 50.782537 27.542221 12.781840 4.289259 -0.080368 -1.990726 -2.567605 -2.497811 -2.164004 -1.760864 -1.377181 -1.046869 -0.777667 -0.565980 -0.404011 -0.282985 -0.194538 -0.131279 -0.086983 -0.056606 -0.036196 -0.022752 -0.014065 -0.008556 -0.005124 -0.003022 -0.001757 -0.001006 -0.000566 -0.000310 -0.000154 40616.580558 38100.528984 35025.823065 29844.460984 26717.190996 22100.584430 17771.523053 14356.563067 13233.654369 9865.953134 4551.839794 1908.407025 684.448841 287.409638 209.282877 206.395378 195.825597 165.351993 124.725500 85.002073 52.559365 29.227808 14.101575 5.199121 0.486564 -1.668818 -2.402242 -2.423612 -2.138453 -1.758892 -1.385199 -1.058075 -0.788935 -0.576032 -0.412441 -0.289779 -0.199845 -0.135312 -0.089971 -0.058766 -0.037719 -0.023801 -0.014772 -0.009022 -0.005425 -0.003213 -0.001875 -0.001078 -0.000609 -0.000336 -0.000179 -1.083523 -0.806944 -0.984677 -0.743291 -0.675570 -0.564468 -0.378967 -0.370632 -0.222906 -0.226520 -0.131529 -0.135212 -0.077158 -0.079637 -0.044884 -0.046421 -0.025879 -0.026805 -0.014789 -0.015340 -0.008379 -0.008702 -0.004707 -0.004895 -0.002622 -0.002730 -0.001449 -0.001511 -0.000795 -0.000829 -0.000432 -0.000452 -0.000233 -0.000244 -0.000125 -0.000131 -0.000067 -0.000070 -0.000035 -0.000037 -0.000018 -0.000019 -0.000010 -0.000010 -0.000005 -0.000005 -0.000003 -0.000003 -0.000001 -0.000001 -0.000001 -0.000001 -0.000000 -0.000000 -0.000000 -0.000000 -0.000000 -0.000000 -0.000000 -0.000000 -0.000000 -0.000000 -0.000000 -0.000000 -0.000000 -0.000000 -0.000000 -0.000000 -0.000000 -0.000000 -0.000000 -0.000000 -0.000000 -0.000000 -0.000000 -0.000000 -0.000000 -0.000000 -0.000000 -0.000000 -0.000000 -0.000000 -0.000000 -0.000000 -0.000000 -0.000000 -0.000000 -0.000000 -0.000000 -0.000000 -0.000000 -0.000000 -0.000000 -0.000000 -0.000000 -0.000000 -0.000000 -0.000000 -0.000000 -0.000000 -0.000000 -0.000000 -0.000000 -0.000000 -0.000000 -0.000000 -0.000000 -0.000000 -0.000000 -0.000000 -0.000000 -0.000000 -0.000000 -0.000000 -0.000000 -0.000000 -0.000000 -0.000000 -0.000000 -0.000000 -0.000000 -0.000000 -0.000000 -0.000000 -0.000000 -0.000000 -0.000000 -0.000000 -0.000000 -0.000000 -0.000000 -0.000000 -0.000000 -0.000000 -0.000000 -0.000000 -0.000000 -0.000000 -0.000000 -0.000000 -0.000000 -0.000000 -0.000000 -0.000000 -0.000000 -0.000000 -0.000000 -0.000000 -0.000000 -0.000000 -0.000000 -0.000000 -0.000000 -0.000000 -0.000000 -0.000000 -0.000000 -0.000000 -0.000000 -0.000000 -0.000000 -0.000000 -0.000000 -0.000000 -0.000000 -0.000000 -0.000000 -0.000000 -0.000000 -0.000000 -0.000000 -0.000000 -0.000000 -0.000000 -0.000000 -0.000000 -0.000000 -0.000000 -0.000000 -0.000000 -0.000000 -0.000000 -0.000000 -0.000000 -0.000000 -0.000000 -0.000000 -0.000000 -0.000000 -0.000000 -0.000000 -0.000000 -0.000000 -0.000000 -0.000001 -0.000001 -0.000001 -0.000002 -0.000003 -0.000004 -0.000008 -0.000008 -0.000019 -0.000018 -0.000046 -0.000035 -0.000081 -0.000055 -0.000099 -0.000069 13422.735867 11963.735104 12595.569421 8303.325301 11169.510441 7859.472732 8281.012321 6148.878412 3652.224514 3137.385338 6391.698259 17821.058924 10232.217632 11036.602493 11089.665775 11675.852041 9219.316556 7982.441452 8288.146539 6906.261217 8277.486850 5218.958613 15049.524580 11053.725281 14306.404208 11155.271741 15387.688635 10932.823142 9810.732456 6973.382830 6163.686827 10905.417554 6618.226598 13856.787401 11542.543634 11236.109884 14538.991009 14867.720509 11830.014709 6057.013005 11038.426222 9946.934266 5734.768504 3908.970638 16137.972484 13333.482602 15832.051313 12584.386759 14199.353289 13500.165386 5007.593811 9968.403479 11878.885369 12094.208305 11171.621621 11761.836360 16088.749309 18913.353532 13167.159272 14033.045144 11754.505596 8290.168556 12875.283835 8977.407249 10885.731839 5666.306924 17068.660879 16932.666294 15545.454387 10338.212868 12082.242755 14290.317819 13248.881050 12209.583430 11699.468650 9671.407726 6933.697222 16593.384244 17935.568433 16525.103997 16084.504066 14630.282684 11935.025221 12982.915210 9496.415986 8587.148588 9532.694580 10792.460501 15005.982955 17323.088670 21632.846504 13411.568378 16025.582310 13803.113273 14007.933213 13661.914067 8882.977903 12465.016132 9716.275072 19217.467501 19715.484975 14763.689562 18701.934583 14685.658306 15135.823217 11873.132962 10858.090926 10230.022225 9928.047768 9556.598437 20361.821852 15109.528072 20767.110786 16870.576841 16616.354510 11792.282229 14521.792868 12769.528278 12634.916894 10448.966586 11199.558329 20391.567871 22331.759621 22339.247024 21511.250199 17490.906863 16463.793461 14520.636182 14143.660948 12252.312482 13834.810092 7664.176768 22763.669956 16400.124724 18742.133505 18369.447391 16539.041196 15682.359056 15198.812629 14258.812050 13298.938236 12040.848569 7461.233373 23357.360075 23268.499203 21777.553156 22328.881199 18930.911295 18487.344393 18531.570200 14929.560368 12639.641053 9966.929510 4224.991380 20613.396756 21154.184947 21991.031744 19859.381900 17267.997187 18022.347635 14688.529431 14221.560644 8433.228747 9152.949512 6576.208933 22090.898425 23145.186854 21965.214298 19007.631847 14098.891215 13684.470858 13461.894904 9909.470924 4982.968317 -430.066591 6221.573665 24201.151582 22961.530066 21220.441372 19222.623497 17949.624442 17336.330559 15688.277218 8118.843003 3363.542840 503.176088 -17347.999184 26087.841471 23422.354696 21392.019404 23040.075385 12763.233151 16351.275695 9526.799272 10372.527287 9504.992464 3961.886777 -12834.330198 22044.255578 22979.087113 21927.579373 20631.488634 16527.580373 17063.952688 16083.549092 9827.748875 2782.708594 5863.614899 -12357.177570 23714.894198 25434.620347 20609.495378 18141.210274 18283.701180 11508.802051 11338.255855 12154.529842 1595.390979 -2573.204616 6016.046661 24068.916863 25289.628471 20979.655410 16701.201298 18982.154996 12633.638136 6972.459599 4334.057648 2733.176649 -3084.495674 5287.909228 23833.877453 23077.725994 21860.735709 19826.005756 12979.954559 17684.105514 5033.133941 8016.365141 9134.142291 3086.920482 5194.400531 24383.343566 23933.321211 22576.823425 19973.417682 12240.725090 9526.863896 13333.268510 6795.240213 5261.863159 5724.350903 1249.979158 24288.638401 24045.767412 21776.771099 19545.985766 13348.597098 12230.964700 9795.968010 8114.382299 2722.034465 4208.956730 12086.580224 24324.560770 25082.922232 20828.398097 19595.949826 16337.501949 11781.370804 6179.188106 613.549350 6789.492740 2215.918531 3046.433810 24274.737819 25872.759652 19892.739937 20428.748449 14986.230590 10628.710094 9471.802084 8661.897522 330.174804 6140.974091 -628.575606 22777.869917 26014.619046 19906.152883 20450.689794 15880.475419 11289.601533 10330.848883 -451.028163 1828.948856 2062.328143 7021.206914 22784.592723 26783.609562 20562.386984 19452.781374 16673.620232 12446.215306 12866.918923 7883.498954 1288.792648 3902.406903 -1930.923298 23258.429143 26244.402546 21309.090590 18340.659831 16367.003217 10151.683921 11617.619474 3689.880439 6463.074201 10043.079053 2266.029508 22602.800389 24445.220749 21966.493668 17501.598588 16790.334253 14278.768003 8757.742124 7130.357767 3530.619497 5533.555626 1718.556093 24107.424130 23908.790015 21846.170025 17759.302235 15559.591380 14976.630725 8189.189837 6848.123125 7028.456742 5141.423712 4790.879267 24296.908584 24075.699422 21093.427070 18432.594051 14819.614033 14512.541419 8265.795998 8682.402832 8478.224425 5304.102574 1277.416707 22623.698997 23569.035602 20227.557106 18517.643640 15184.378374 13513.893800 12085.648326 8146.423188 5740.559572 3521.954531 1612.727577 22654.294935 23389.395801 19621.633730 18127.319722 15997.943432 12091.755813 14029.461200 4106.736926 8459.791496 3061.904925 3615.691868 22493.383661 23601.866671 19539.675772 17591.015463 16607.454946 10593.730376 14737.606470 2943.084924 10591.002083 4611.652019 2674.956192 22598.363024 23095.797979 19544.420425 17147.086214 16961.691624 10327.497451 14629.437319 5654.013196 10523.895957 5769.098150 1753.772774 21191.861482 22285.998171 19439.745950 17134.995457 16340.331616 11492.469211 12758.193019 8475.435827 7398.064368 5500.946655 -3186.343005 21977.546067 21954.444234 19030.998161 17445.416936 15384.838210 12686.194181 9839.617488 10279.569286 3220.621828 6260.413193 -4628.496515 22459.699176 21344.188957 18668.299026 17429.149868 14620.572943 13283.273218 8056.039360 11289.082238 -845.186887 6743.047820 -6448.724626 21065.393773 20575.553066 18416.378132 17021.091874 14301.311600 12998.784774 7523.686553 10457.481441 -1649.216248 7855.638376 -3417.889541 20708.615005 20158.430562 18085.731488 16531.160988 14185.598150 12519.900514 8240.031637 9279.637501 204.324656 7842.617055 102.564096 20895.853812 19976.570555 17796.162998 15946.114266 14079.570283 11894.510543 8834.697987 7708.837581 2317.813085 4933.188259 2521.749546 20652.770059 19354.516757 17509.080843 15316.529591 13800.324295 11267.852912 9296.183626 6652.820842 4333.400205 2411.061125 5787.906742 19631.178148 18644.909892 16982.034480 14759.704794 13277.300925 10726.598869 9462.214031 5917.450925 5857.782174 1506.622850 9605.040294 18726.729941 17962.192496 16218.416495 14253.126080 12561.180983 10326.042924 9288.023768 5508.185723 7152.707819 906.323592 13468.254949 17861.264557 17363.311015 15388.602510 13828.874051 11762.646681 10060.822305 8819.862715 5410.429620 7873.013307 243.989826 16132.877783 17237.451498 16762.264829 14489.771163 13391.819363 10942.868045 9838.744140 8442.200888 5509.250381 7822.704975 100.630475 16435.719991 16506.678541 16184.910304 13728.295101 12868.079101 10200.831933 9410.873321 7838.660757 5231.936896 7169.815996 541.610637 14125.421119 15656.826519 15608.044882 12932.498600 12216.509211 9584.204987 8700.167167 7143.546034 4818.852893 6333.033518 986.440008 10561.603899 14760.288595 15006.947695 12040.167576 11418.735533 8963.319988 7787.154975 6596.501013 4388.018377 5518.966576 1255.919769 7314.128554 13814.647575 14435.369959 11361.973475 10584.491981 8313.007871 6844.735594 6120.960730 3734.068239 4631.708154 1273.007093 4873.377909 13011.643809 13824.306497 10708.803951 9807.511385 7780.485786 6006.743350 5583.762558 3018.477430 3778.046654 1109.387848 3092.667934 12262.568858 13322.385458 10165.496149 9108.784366 7382.282936 5309.997518 5096.165393 2574.350024 2940.735769 874.270264 1785.756839 11602.969375 12816.543299 9720.217990 8488.354901 7058.686265 4731.484135 4599.618239 2192.414512 2203.461326 619.696703 834.009763 11054.529558 12317.581296 9354.982340 7960.053246 6755.886581 4271.390326 4107.565033 1797.279160 1476.145103 296.928676 251.760826 10603.233508 11831.284819 9048.269520 7540.144620 6459.610923 3922.041593 3708.915581 1558.206545 989.003409 202.833148 2.720919 10263.993689 11376.757122 8763.374261 7221.819738 6189.720751 3696.440790 3422.201593 1454.143641 694.171586 242.601148 -42.590644 10028.983680 10992.646088 8511.505790 7011.343316 5961.802420 3597.364796 3293.539830 1500.475455 596.206391 425.733800 84.336967 9832.863408 10726.912956 8293.172283 6887.329467 5817.385770 3618.319741 3320.889081 1716.027041 729.462929 770.881186 312.533851 9685.794172 10537.681093 8103.880569 6823.477720 5756.630597 3743.300579 3450.497281 2021.281536 997.550871 1167.683407 536.942441 9535.282249 10422.424067 7964.405144 6805.408689 5740.822095 3920.385239 3615.744302 2329.082247 1308.937840 1517.556965 691.169387 9390.026687 10373.398291 7872.310446 6812.460562 5748.313804 4088.265438 3737.580147 2553.022689 1568.078917 1739.243178 740.323427 9266.373643 10383.380754 7839.847284 6838.838865 5750.413389 4203.594939 3773.559479 2646.512523 1710.018357 1795.417635 688.698490 9227.483753 10456.392426 7869.274987 6898.861207 5750.597983 4270.859552 3734.771077 2618.368259 1733.017895 1709.403346 574.945300 9316.775121 10627.358006 7992.646119 7031.351252 5784.106210 4329.274244 3673.026963 2528.278401 1686.876174 1547.873268 451.579978 9579.390210 10921.578503 8234.179160 7269.383685 5897.219514 4434.019963 3664.766904 2464.689382 1640.570780 1386.874143 366.934139 10045.243138 11362.164371 8613.293655 7648.064204 6146.031200 4641.531255 3770.371821 2500.775013 1658.664037 1286.575284 349.378862 10686.934063 11952.424146 9138.030376 8178.833913 6558.041296 4988.944020 4027.314796 2672.438505 1776.691070 1280.128217 403.414300 11465.624307 12688.843409 9817.586402 8846.002759 7125.131883 5481.484464 4440.161186 2983.862242 1999.427649 1365.651662 518.542304 12349.741741 13526.432274 10647.219186 9628.120079 7833.982167 6115.075803 4979.638592 3408.609863 2310.923246 1522.766331 675.097163 13331.033970 14463.229258 11563.165272 10489.803593 8649.240314 6848.439575 5606.103679 3917.524286 2680.514350 1730.334049 854.278844 14394.930793 15435.533977 12586.334151 11426.582309 9542.105359 7644.620520 6286.594356 4477.638945 3079.135941 1964.575948 1045.548435 15495.208817 16417.976510 13650.923422 12375.086638 10461.529918 8476.659448 6994.539230 5058.093041 3492.318491 2213.326267 1242.207209 16662.700215 17430.791168 14752.784216 13349.780907 11394.748068 9310.682092 7704.392478 5638.253259 3903.941268 2471.934283 1440.776982 17823.683538 18388.409761 15879.591111 14313.215778 12322.432042 10131.666793 8407.223680 6210.621859 4303.246540 2732.259078 1637.534640 18943.383199 19379.031496 16933.544108 15213.167495 13197.988260 10899.062458 9073.586556 6762.866650 4687.958225 2990.255410 1827.639612 20081.944969 20284.609435 17958.304917 16089.575489 14066.647300 11643.240959 9701.970486 7277.401373 5040.988126 3233.663223 1999.942813 20970.757272 21082.543094 18812.211253 16814.490682 14802.639208 12279.748498 10271.372771 7759.730458 5372.389039 3464.825546 2152.163355 21857.622361 21879.489293 19708.094232 17539.330654 15516.183721 12861.048339 10774.238701 8173.894183 5653.602264 3661.276535 2275.666255 22406.635832 22376.227221 20211.171576 18033.361436 16078.792492 13358.247020 11230.722218 8564.073123 5922.694406 3860.429455 2374.475683 23050.801419 23020.256402 20896.585778 18583.089058 16599.891610 13746.572322 11583.262404 8868.308575 6125.701914 4005.260196 2451.934981 23242.559536 23286.586038 21138.190673 18906.606334 17047.185477 14171.990035 11964.308994 9175.527547 6358.328091 4189.930605 2518.096823 23798.222668 23829.585167 21626.372784 19314.424675 17349.585356 14393.468885 12196.719123 9399.590533 6476.597456 4283.680864 2589.473655 23879.040394 23951.990407 21800.368984 19600.629166 17760.305940 14802.025108 12531.025442 9656.957134 6726.130767 4453.594196 2621.759770 24362.917002 24367.454193 22078.581826 19905.655180 17860.322902 14919.701392 12677.073236 9755.147533 6738.976425 4523.748891 2742.992373 24573.373856 24580.651950 22291.404495 20302.711991 18256.777624 15317.903994 13023.273447 10130.978733 7042.820360 4575.627209 2720.186129 25097.168652 24783.109785 22660.306844 20401.665634 18277.759790 15348.087520 12954.011338 9848.053009 6959.734704 4777.186506 2859.575943 25029.214777 25222.177275 22929.411304 20928.442228 18769.866073 15869.099979 13682.458412 10727.439810 7150.248816 4612.505083 2777.640692 26057.232140 25350.994394 23195.596042 21180.692084 18733.340760 15852.295239 12709.088682 10137.417977 7388.438864 4902.746926 3298.625884 25856.596613 26299.931799 23903.890939 21727.536052 19213.139616 16758.163760 14729.044535 10649.701218 7372.480145 4000.750549 2805.997180 26387.125184 26115.788824 24170.300044 22041.957093 20105.719046 16080.014806 13473.290064 11151.697281 7808.852748 6880.639980 2694.253558 26406.249461 28464.108505 25201.764391 22736.919276 19099.794949 18806.568377 14549.709596 11277.659469 6661.046103 2431.903488 4864.352075 27431.048946 25613.307017 25334.002180 24745.475299 20995.281849 17023.627272 14589.542582 12761.130303 11486.332025 5657.642615 2337.495768 29150.983098 30327.617791 24974.674361 25855.258925 21668.306549 20406.547337 16409.326505 10247.778067 5293.829328 9013.600284 1947.926041 30425.366219 27386.711033 28820.070388 23991.269634 23370.845574 17526.644063 17199.695529 18125.662680 8547.034640 5533.772659 3944.969024 30361.984102 28695.203730 27169.094657 31720.546749 21626.626386 22626.501790 15450.166503 14171.148695 11124.583770 3634.682755 4138.827727 33449.381444 32261.286906 31642.459587 26469.702167 23036.472687 20944.585380 16223.124254 7069.798555 9022.958295 6442.346985 2633.505746 31315.575859 31711.220748 26918.407369 30896.039439 24074.916739 21748.656595 19868.922317 17523.226413 9606.151010 7407.907517 1126.195196 29577.727147 31464.239436 33269.456414 32766.907813 24765.759350 20823.550640 17078.021123 10674.526727 9635.194395 5494.194229 5417.732402 34696.722788 36088.421128 28428.837363 27160.051768 22474.122149 23996.665101 13982.603567 18901.629092 6002.174730 6507.128147 5198.644743 38417.530474 32333.417644 24162.762245 27881.182846 25836.742557 19460.134341 17952.706911 14733.290747 7076.557819 7583.896465 9105.183227 3997.454803 1887.401648 4115.288759 2111.049606 1505.779248 1169.031502 323.899577 -272.127878 -138.626111 -1768.259293 -1465.936667 -447.241415 -6011.559033 -3663.451683 3109.563665 2625.424582 6004.260743 928.748700 1277.287758 1521.799452 558.137235 -553.450340 -805.972018 -332.641962 -537.017627 240.619747 -3136.648644 1051.528417 9033.101585 2505.425550 3687.690612 3918.408280 2279.959947 796.702267 525.738290 524.402993 -1019.669103 -1029.218387 -1000.997973 -1073.580746 -604.201122 -433.069143 9676.389961 6951.922084 2348.638398 5376.156852 3940.318768 3569.920526 2044.601749 449.729679 -152.084867 -1135.996457 -577.808928 -360.084651 -714.780014 -361.371679 4608.174176 3547.078574 10296.257997 3870.201952 4950.647290 3015.802279 2483.562037 854.750394 -446.770467 -615.313852 -273.682692 -297.359015 -785.916791 -399.338855 4807.272105 9698.860333 9090.879185 4509.274078 5772.265968 5120.250450 2879.119129 1951.195315 1414.622912 578.922299 619.794536 446.482973 -144.272082 131.160814 6033.072324 7549.560363 7970.377604 3421.881835 5371.409725 3490.571319 3192.013644 2434.617133 1569.054117 990.282185 1164.818039 914.793927 232.592403 289.923147 7796.487926 7857.388676 5168.413533 5855.328820 4401.138353 5604.362185 4658.423043 3652.009350 3262.307707 3209.478042 2488.291966 1245.905318 782.250014 790.335701 8101.686157 8406.269794 10543.087393 5762.008437 8235.583814 5129.330752 5582.852951 3774.384790 4241.789354 3456.071311 2486.740221 611.031647 807.429638 1043.910553 10896.094791 9890.178597 9613.938246 5688.333297 6999.465424 3323.756673 5562.297487 6288.367456 5612.489371 4483.550795 2952.445118 500.030740 616.164672 1104.507971 9773.404105 9673.767114 8670.413433 6360.439749 7004.673739 7051.713366 6914.074101 7978.323919 5894.891484 4765.173479 2680.167573 -739.805617 912.649624 968.977515 10780.288617 6537.061865 9019.997532 10981.317503 5234.998673 1706.294196 4493.330520 5312.928240 4474.920510 3742.381619 888.973218 11.512860 -596.066225 1701.023309 8765.293775 6406.986780 1419.748094 9072.858010 6107.984541 1511.650272 10369.447853 4233.211832 7062.725452 4765.841215 607.600868 4040.127805 -208.086795 1686.960846 260.857400 1244.594712 5123.039426 4815.375441 6324.874289 2988.703421 3520.849897 3656.048788 6103.946086 6165.356614 2756.917886 5271.862817 -1048.430581 957.724964 1838.675231 8297.994210 -1977.224081 1622.145076 6384.499260 -762.884895 3259.204425 -2432.315263 2264.389839 -485.792694 6604.493374 -187.192088 -168.813211 4678.151820
</DataArray>
<DataArray type="Float64" Name="Velocity" NumberOfComponents="3" format="ascii">