<VTKFile type="PolyData">
<PolyData>
<Piece NumberOfPoints="1945" NumberOfVerts="1945" NumberOfLines="0" NumberOfStrips="0" NumberOfPolys="0">
<PointData>
<DataArray type="Float64" Name="Pressure" format="ascii">
 10222.582878 11504.075120 12167.422785 13658.284605 14126.682952 14301.363729 14315.777698 14532.695516 13520.576450 14719.186776 12678.568464 13663.274579 12853.430745 13443.340899 12725.599892 13079.515850 13053.682978 13861.864828 13481.000064 14158.123164 14053.513382 14831.403975 13677.642412 13564.401080 13624.753353 13817.633881 12821.505481 13098.467047 12710.543564 13346.402136 12383.560607 12914.563888 12956.097237 13302.294479 13570.606583 13445.505942 14085.265372 15085.970347 14164.288263 15277.361981 14263.870887 14799.255651 15715.298623 16726.465592 14565.819559 15006.769478 14793.029099 15128.713455 15370.488546 15527.115886 16207.283801 16737.412449 16160.554298 16968.365940 16055.607412 16147.706921 17289.562246 17890.663314 16971.321606 17510.045831 16314.389314 15963.507738 16869.498916 17989.594556 16838.290033 17510.874887 17304.317047 17655.087127 17854.746198 18517.002931 17076.898059 18127.701760 16678.462301 17468.235621 18546.474518 19389.119000 19656.264217 21034.958537 19417.684673 19819.539611 20721.178697 21139.542584 20226.587907 20353.612523 21740.638166 21466.342295 22613.730022 22289.720150 22481.437264 21552.240984 21154.882491 21144.647400 21670.371544 22437.167578 23332.593219 22757.267278 24364.715430 22456.908052 24749.855578 22652.255444 23932.846989 22786.271513 24891.943251 23580.408208 23402.124557 21654.231622 23952.250236 22995.460057 22021.637209 20811.303118 23895.763059 22308.881263 22857.179231 20862.716703 22739.909651 21245.830935 21907.208589 20206.493613 21269.190617 20677.648283 19358.384639 18662.737995 20907.614734 20386.226989 19758.620832 18604.490702 18413.815713 17408.020876 18091.021377 17367.134593 18597.900607 17291.181457 20314.680713 19105.991060 19414.962495 16978.129036 19088.032661 17647.722641 17103.225835 15370.070416 16963.974400 16170.447675 16279.931581 16568.722915 18071.589523 19012.732327 18536.834773 17759.929360 19339.838208 19089.176279 17422.149062 19041.451353 17097.239193 18418.159780 20057.760187 20908.665674 20910.900852 21179.908427 24965.042022 23731.559021 21785.947756 21504.363058 23374.287761 23789.374909 21736.781188 22193.167507 22609.111039 23713.273091 23513.804351 23644.879308 25109.548577 25424.163220 25135.781645 24560.699348 26565.981201 26709.404325 26541.444667 26911.409185 26697.687671 27204.200435 27544.859314 27992.554540 27263.648820 28135.195479 29075.602587 29849.709256 27955.454479 28999.335644 29188.350346 30122.249636 28785.755656 28792.274706 31847.645648 31538.710512 31854.733336 31516.188808 31304.272664 31153.236592 30302.726028 29693.624416 30911.478185 32028.091786 29945.554438 31326.089174 30120.409826 29081.086229 30490.313732 28675.211195 29879.090077 29314.020105 12038.769834 10345.068908 8559.829664 6994.125179 4878.656120 2559.020465 28.588467 -562.329243 895.942003 -238.397507 -3596.043291 -3102.240837 -953.959514 -599.996959 -3543.560176 -5163.741280 -4097.325839 -3457.929176 -5153.800701 -8138.736147 -8750.539375 -8412.961978 -8056.628335 -7669.697584 -7233.948846 -6759.238813 -6258.002081 -5741.956844 -5221.844122 -4707.392418 -4207.182560 -3728.476470 -3277.081832 -2857.293475 -2471.923555 -2122.411860 -1808.995689 -1530.914777 -1286.628264 -1074.025280 -890.616308 -733.697866 -600.487380 -488.228405 -394.268426 -316.112719 -251.458569 -198.216234 -154.535726 -118.936236 -91.183264 13233.890496 11651.579305 10264.542311 9057.907504 6746.453589 3933.175010 482.923253 -993.784967 1425.167580 197.757751 -3664.601678 -3085.353088 -581.105844 -76.377251 -3518.193002 -5496.340961 -3916.107234 -3644.107501 -6571.765962 -9113.130115 -8767.022619 -8363.675343 -8041.846642 -7659.411716 -7226.471365 -6754.410327 -6255.615659 -5741.773929 -5223.620544 -4710.867023 -4212.070658 -3734.475151 -3283.883188 -2864.600468 -2479.464451 -2129.950862 -1816.338951 -1537.912079 -1293.171239 -1080.043266 -896.070869 -738.576806 -604.798861 -491.995551 -397.524598 -318.897388 -253.812852 -200.172150 -156.062416 -119.614192 -88.177131 25950.200609 26855.310925 25174.866441 22299.294025 20193.821937 19633.628416 17223.658125 15046.526997 15285.589928 14243.066274 14301.690147 12162.403592 7920.797744 5330.241631 3692.604282 2818.618564 2162.804246 1652.988178 1259.439417 960.351695 735.380458 566.420603 438.756611 341.276123 265.982637 207.254428 161.141466 124.818132 96.203108 73.713408 56.111226 42.409357 31.811368 23.671727 17.467330 12.775759 9.257804 6.642947 4.717127 3.312368 2.298018 1.573386 1.061603 0.704560 0.458771 0.292028 0.180727 0.107744 0.060769 0.030962 0.011730 27780.189962 26397.230276 23887.573847 21461.852093 19390.963970 18016.405698 16241.064944 14376.952158 13705.350738 12309.328341 10691.236674 8717.929494 6588.310259 4950.968216 3744.803651 2860.154387 2192.716332 1676.481937 1278.537273 975.554569 747.065744 575.152233 445.187815 346.012343 269.509575 209.926898 163.204121 126.435031 97.484236 74.734287 56.925883 43.058276 32.326163 24.077828 17.785554 13.023282 9.448811 6.789113 4.828005 3.395716 2.360082 1.619148 1.094999 0.728669 0.475976 0.304154 0.189155 0.113508 0.064648 0.033656 0.014578 -73.039788 -64.936678 -68.229128 -60.884223 -55.479984 -51.740857 -41.370607 -41.026310 -31.436520 -31.563122 -23.867515 -24.035175 -18.040302 -18.183585 -13.564127 -13.678406 -10.143344 -10.232803 -7.543985 -7.613394 -5.580244 -5.633728 -4.105293 -4.146241 -3.003869 -3.035023 -2.186107 -2.209663 -1.582431 -1.600131 -1.139332 -1.152550 -0.815940 -0.825751 -0.581245 -0.588484 -0.411876 -0.417184 -0.290329 -0.294199 -0.203584 -0.206389 -0.142018 -0.144038 -0.098560 -0.100007 -0.068050 -0.069080 -0.046746 -0.047475 -0.031949 -0.032463 -0.021727 -0.022086 -0.014702 -0.014952 -0.009899 -0.010072 -0.006632 -0.006752 -0.004422 -0.004504 -0.002934 -0.002990 -0.001938 -0.001975 -0.001274 -0.001299 -0.000833 -0.000850 -0.000542 -0.000554 -0.000352 -0.000359 -0.000227 -0.000232 -0.000146 -0.000149 -0.000093 -0.000095 -0.000059 -0.000061 -0.000038 -0.000038 -0.000024 -0.000024 -0.000015 -0.000015 -0.000009 -0.000010 -0.000006 -0.000006 -0.000004 -0.000004 -0.000002 -0.000002 -0.000001 -0.000001 -0.000001 -0.000001 -0.000001 -0.000001 -0.000000 -0.000000 -0.000000 -0.000000 -0.000000 -0.000000 -0.000000 -0.000000 -0.000000 -0.000000 -0.000000 -0.000000 -0.000000 -0.000000 -0.000000 -0.000000 -0.000000 -0.000000 -0.000000 -0.000000 -0.000000 -0.000000 -0.000000 -0.000000 -0.000000 -0.000000 -0.000000 -0.000000 -0.000000 -0.000000 -0.000000 -0.000000 -0.000000 -0.000000 -0.000000 -0.000000 -0.000000 -0.000000 -0.000000 -0.000000 -0.000000 -0.000000 -0.000000 -0.000000 -0.000000 -0.000000 -0.000000 -0.000000 -0.000000 -0.000000 -0.000000 -0.000000 -0.000000 -0.000000 -0.000001 -0.000001 -0.000001 -0.000001 -0.000002 -0.000002 -0.000003 -0.000003 -0.000006 -0.000006 -0.000009 -0.000010 -0.000016 -0.000016 -0.000026 -0.000026 -0.000042 -0.000043 -0.000068 -0.000069 -0.000107 -0.000109 -0.000167 -0.000170 -0.000258 -0.000262 -0.000391 -0.000396 -0.000582 -0.000589 -0.000852 -0.000862 -0.001222 -0.001234 -0.001714 -0.001727 -0.002339 -0.002353 -0.003092 -0.003103 -0.003922 -0.003924 -0.004695 -0.004680 -0.005129 -0.005103 -0.004652 -0.004742 -0.001815 -0.003228 0.002301 -0.001026 0.004496 0.000602 11913.278650 14097.353242 10882.851868 13602.163457 11902.000976 7383.708566 12982.233514 11797.877844 11123.784936 10524.426587 7633.481585 13266.989257 9793.299120 10961.821085 11548.099766 8401.974805 9411.597596 9926.801283 7219.011999 9676.359755 11000.625053 9472.802575 13103.332705 13434.594272 13116.989658 11631.523167 10507.186518 12204.970180 6035.086759 7938.615449 8404.560586 3139.714377 13995.893010 12850.994070 11303.862533 11419.175001 9343.826939 10243.065973 11372.229124 10528.629610 3209.116679 11882.516336 7944.856229 10160.718378 10324.327684 8826.238209 11423.691272 12238.313905 12506.356289 11155.767253 9587.918235 9671.315721 8060.897978 9410.322017 11568.763297 12466.901936 12498.582295 14556.986220 13537.806411 12107.005898 8768.210606 13071.618620 9619.300931 7364.961459 4291.884999 11484.850527 10739.502625 12867.147653 12510.733724 14004.256611 10820.334089 12390.448629 10744.348218 11884.735373 8937.403553 11245.091368 5818.898537 13506.535900 12758.405298 13330.093939 14020.962329 14703.973031 8568.345388 6455.653771 11729.167270 8798.076922 8788.829867 6204.862281 15465.893610 14862.221204 13227.660170 13532.453468 13020.752726 11324.299574 10052.447744 10464.932988 9988.102421 7618.225141 9408.248150 14320.246131 15000.221460 13779.942217 13602.660132 9911.553792 15151.218402 9120.709690 12063.100742 10413.125843 5162.175484 6880.316479 17646.274470 12876.210112 16323.680540 8530.798771 15031.888662 10850.767146 12783.684309 7967.241110 8064.388564 5627.641441 6274.529965 15695.630544 14548.739857 13531.485752 14878.306592 9439.229973 13880.712386 8687.633754 10174.122603 10867.976534 10676.955173 8347.600133 15239.041082 13875.591652 14456.406639 12880.625531 11732.079014 14375.790401 12930.638381 9120.178885 11819.987232 10756.213033 6943.323736 18028.410541 16684.062806 16454.037912 16327.119428 13529.556844 13313.008306 10551.049605 10865.739230 10496.612349 4886.255853 3941.407625 16683.165330 14974.503143 17248.178865 15189.570725 14051.873028 12892.766666 9127.968522 8893.013277 5932.594315 7151.875099 2280.666951 17728.366067 15313.372218 18204.957833 13258.139148 7922.212304 7103.024802 8461.117742 5812.243143 2477.707244 860.163447 841.462337 18588.542821 17641.059853 16130.435145 15465.504647 13067.606190 13673.983548 10358.915329 12003.734000 2318.971888 926.432899 1727.920868 18812.929980 15405.745442 13715.657495 11820.030808 9171.115165 6842.140170 9112.465295 2556.536143 699.480185 973.280953 1625.652519 17393.135650 14613.716367 15025.253223 14100.755948 12446.455408 8676.668361 6357.555803 3961.658094 4516.664388 4229.808566 2506.041118 17944.957575 18691.321636 16815.751190 12244.558597 11630.776508 8662.030923 5027.204170 6007.881660 1362.788786 1067.244495 3271.945955 19872.598555 16884.866921 17891.077822 14185.791045 11192.422679 6385.298183 8907.030290 1751.836683 4111.850226 1315.720799 1656.272461 18971.381481 17756.461525 17536.209738 14289.013764 11163.537021 4588.199799 3493.257305 2429.916008 7206.661902 692.414900 813.948627 20134.519517 19119.994460 16904.587509 12161.971803 11156.798569 9629.111098 6227.110290 3361.657563 2233.446090 2173.402571 1534.639924 19524.594826 18015.053211 16216.295207 14237.919035 8124.795867 9325.088144 8954.007708 6527.451693 3736.357019 3034.081557 1216.863177 19624.164764 17881.196364 15606.975858 13977.605802 11984.415080 11604.976416 10057.374404 2550.760378 7751.474605 3622.393443 4186.209740 21109.048600 16654.988554 15106.565587 20048.064459 16476.695518 8061.093318 11822.527577 6121.074145 5139.056144 6409.498720 583.374372 19675.340479 17130.883281 16829.740079 14383.133295 14988.300165 9952.759818 11993.415100 3298.725658 4335.026614 2221.820404 697.899454 18260.997033 17633.406690 14249.975950 14077.602400 12349.116475 12345.642153 9085.726722 7286.019171 2447.516774 2130.264854 3420.042804 18975.627668 20400.856298 14637.150561 15051.634389 15177.621267 9594.279785 6244.575599 8323.767712 5921.155952 6058.603423 2098.435137 20963.865493 16234.835173 16362.610446 13724.132731 11023.472277 10016.710079 10222.756736 5922.713903 6279.582594 2657.398813 1302.211344 21005.911828 20599.516235 19502.608590 14636.949962 12409.488965 10201.944852 8889.653254 4608.370110 3828.586914 4914.224594 2116.369772 22262.629639 19879.244100 13811.812619 17084.932168 13060.864391 10697.112839 9742.499168 6284.415768 6047.868476 4633.854155 -2010.865047 19341.235943 14210.754789 16678.482664 14152.534576 11445.882982 10590.424017 7066.039774 9014.927999 4222.276417 3822.900637 2168.095374 21548.379039 20730.784034 17028.523864 14103.200050 14680.845335 10491.295398 9163.802321 6166.567700 4463.574597 2229.253765 1854.193711 19707.931425 18579.943753 16011.258515 13140.027969 12744.865182 11877.841125 8377.767411 6353.149320 2059.726852 3039.002733 687.212992 22874.535937 20378.223614 16895.960287 14909.933095 13448.210695 10749.707247 8910.716162 9066.091349 4500.065720 2863.644434 1060.713361 20457.750914 18938.064773 14931.701895 14351.404808 12107.395035 11756.191405 9786.551648 8325.234381 5292.617595 4475.517928 9121.208869 18941.237966 17089.721742 18173.147285 15322.427004 14333.386963 12355.725816 11740.340552 8263.172954 7251.173842 1238.037949 1156.925069 22084.076781 20629.101056 16727.197633 15420.537120 12884.023815 8238.712322 7277.515270 4607.060409 6192.604110 2967.526644 -454.482998 20336.473511 18190.700897 15859.058711 11486.859395 9854.426353 8503.005087 6544.741967 5622.943491 3666.256156 4952.011940 22968.061509 21048.092993 18911.925242 16811.725371 14975.400367 12488.916004 10484.781630 7315.616894 5177.329553 3810.196502 1110.776881 1021.361722 20132.245524 18465.865022 17742.119979 14525.158990 11708.515623 10301.391569 8922.667307 6920.741688 4762.768265 3578.552904 1138.460223 20646.633859 20219.312502 14234.654492 14200.378636 12998.841047 10901.267542 8229.665243 6596.815143 2650.030754 3455.144448 2599.709226 17609.456781 16758.356880 15756.131979 15251.202521 12039.662696 10706.731204 6374.051504 3887.432979 2351.991625 1274.489197 11350.603198 19730.913972 17899.285957 15717.120164 11843.953334 11223.092834 8853.776086 6635.650969 6372.496226 2870.935690 4520.559602 1544.776959 18372.009660 17398.515918 15665.070737 10157.004666 8369.723194 7018.782023 4776.647254 4641.212723 1279.749748 4018.608190 3288.890695 18201.781064 15486.929793 13178.174870 13416.801041 9126.163889 8078.968394 8824.926351 3403.819910 4822.834329 5862.599339 4044.643898 19251.656567 15997.735235 15218.234439 13680.926695 12567.952210 10861.170281 5748.910839 8377.342521 3710.509480 1519.904781 2242.527264 17813.178845 17218.014267 16175.865285 12663.499591 9974.702784 11571.994342 9020.911754 7226.346019 4108.533407 3961.891825 1171.554972 17359.373673 14895.462051 14092.754147 13710.291523 12012.239242 11918.855611 9364.347976 7929.151060 6192.245949 3788.217075 3428.131660 17656.433970 16433.860332 15978.416351 13234.205642 11922.588711 10155.647303 9199.308901 7877.081219 4273.582071 3512.107403 1673.586382 18037.976182 16177.979653 14899.477480 13674.411263 12391.646038 10972.016922 8757.282745 7470.551628 5342.915590 4400.956595 2564.590696 16815.336224 15971.422050 14209.083402 13215.877297 10975.103831 11400.391427 7738.637404 6841.909622 6013.364879 6926.575570 4497.172113 17857.185170 16206.535911 15756.213740 12664.553547 11511.145846 10781.353464 8950.756333 6013.516454 5293.685944 4802.174397 -709.583258 17524.835443 16502.014993 14762.870747 13582.564461 12298.548817 8108.589302 7130.170165 7574.310048 4607.372848 3400.312518 13436.536982 15841.447242 15896.584769 14101.403827 13398.262591 9432.238252 10477.211420 7241.418321 4669.192756 4985.823125 3533.478756 4494.615987 17098.414368 13296.973789 14647.092728 12559.649468 10938.069514 9654.927812 8786.062173 5790.608800 4105.520522 4762.490057 6425.986206 17429.860923 16973.031707 13908.564292 11553.257444 11154.426540 9968.216521 9009.658092 8094.733561 7200.045145 4487.043327 3918.495866 15392.453904 13436.007304 13346.737437 11783.460798 11876.746539 11218.714949 9042.284674 8411.954441 5556.166651 4383.590156 5876.691255 16303.843978 14060.467825 13256.036769 13100.848172 11656.597695 9690.770645 10071.177755 7370.492979 4798.043362 5637.350517 2798.657307 16777.459642 15720.276703 13850.213029 13010.637817 12745.637342 9998.879079 7836.415909 5821.588030 4651.011732 3070.627055 -18695.421058 19412.892516 15727.638372 15462.643551 13698.339755 12621.038942 10162.002768 7124.794708 6773.563362 5501.662214 4516.807829 962.691227 16699.852396 15484.769581 13919.270521 14296.498791 12308.119196 11123.318755 10087.016108 6854.532690 3854.265880 382.190312 1842.587094 17430.970451 15663.877344 14076.106436 13655.000065 12710.579428 12020.860371 7233.827873 8813.847020 4368.086009 2262.598482 1918.438443 18316.500699 14860.364221 15918.855450 14464.893191 13335.181991 11770.565145 8748.317949 8774.779161 5730.280272 4106.205349 5010.390767 18365.457065 15824.937042 15650.033994 15072.436845 13393.007695 10445.436641 8804.043869 5656.959705 6158.727294 3872.032408 2709.642871 19913.430263 18919.198018 17592.883821 14609.127879 14094.436349 11527.750858 8554.624921 6361.402189 4583.336241 1270.807958 9128.729572 18261.608372 18106.651219 17848.136073 13159.701669 10617.600897 10718.382025 9206.139055 6682.834994 3760.478388 4362.724003 1779.054766 17554.362523 20518.514551 14099.875473 16131.905242 12316.539885 8120.212536 10525.069302 8650.141276 6805.294588 4669.667015 4789.803857 19028.091744 18233.761451 17270.470997 16232.422743 12218.341600 9391.120908 10828.124765 6252.605329 4662.876784 4736.594636 21356.008829 20591.896792 19683.038413 18150.627407 16158.107272 12032.250657 9377.538357 6605.324793 7173.965237 6424.819775 5348.475584 4041.096094 21635.762002 16669.605229 17108.633069 17854.881461 14685.381130 9620.945451 5857.878332 5436.222044 5573.898216 4814.578311 8042.792998 22615.265538 20589.075415 18120.235263 13260.657246 12732.612451 12036.629606 8205.745412 7073.733543 4682.089280 5044.226149 16051.069108 22662.348679 19139.890902 17504.253409 15536.318387 14140.277034 12846.198825 9092.501720 8079.155710 5693.773007 6571.153600 10348.244406 22645.461825 20053.283385 20122.096146 14775.620905 11731.903920 10206.863235 9527.768881 7402.578057 4637.514805 4250.613372 4011.025798 22806.077756 21827.176297 17342.370518 17269.822969 11710.523325 9935.033106 7011.252645 6769.329801 7248.947802 3769.356837 25331.301140 23969.747508 21042.602852 19793.119917 17211.005563 13328.272354 12121.823917 10480.670264 6274.851642 7509.540517 3870.097095 5822.973738 21502.364334 22527.023696 18910.384499 17300.706893 13792.477451 10716.310726 11092.217200 7009.098038 4485.267310 6318.295993 19960.286524 24393.384598 21590.678121 20235.542307 16779.783477 16618.378737 13515.234996 11655.408708 7111.358915 5938.745927 5005.395592 -2818.042436 23275.035348 23302.330889 18757.719735 19054.729981 15384.519683 12886.683599 10907.821280 7493.297116 4328.977665 5833.801192 -294.199276 25261.262675 21179.145951 20949.124980 18599.298918 15545.375535 14352.292522 8217.445766 8446.967327 3469.224830 1152.919352 14164.498600 23948.644263 23847.602145 21836.392660 19363.546848 16629.677485 12465.673419 10087.516075 9485.275316 4856.690384 6025.290710 -19828.432731 25677.355137 24466.690136 20517.704368 20816.541648 16452.248852 13505.875796 13889.644934 7067.209133 6608.822675 6008.443811 1578.567045 24477.664615 22963.453710 22236.602451 17922.338351 17300.683520 14312.124706 8887.898339 9927.853557 4232.943515 6397.896948 -8653.607756 24743.662660 25141.400349 22924.226711 19231.047421 18856.828209 12852.098459 13508.841894 9704.042448 5226.608879 3850.018574 985.474090 26675.771426 24358.834754 20366.643069 20879.634695 17383.325423 17084.125881 12550.139755 8382.120695 4680.323190 3969.295176 -294.582032 26104.239206 24377.612018 24365.518517 19556.969838 18729.584885 15987.707999 13889.341602 7795.103602 6432.553897 2401.380992 1034.160330 26107.685973 26398.969077 21731.426104 22634.866981 18352.061463 17781.001641 11703.821275 12937.896738 6930.859866 5219.186147 590.920956 28940.413506 25823.961819 26259.422156 19826.946034 19859.433250 14679.527579 14057.369760 12490.909295 9859.627365 6358.006066 3377.861808 27171.782325 27213.579839 26038.030634 22460.577268 17519.271476 17900.368553 14659.795629 10279.679341 9426.269938 5292.100315 186.457400 29668.294520 27212.369810 26816.232486 22887.510877 22678.215129 20866.568564 18429.587903 10959.294485 12058.004009 8479.522208 4801.776038 28373.092759 28396.481284 24831.181842 26509.964237 18532.109493 19844.050633 15834.356480 13401.137896 12816.424818 9789.912525 8673.692104 29914.056994 26054.208671 28801.951872 22897.270791 23010.256984 16852.901313 15479.656381 14881.001180 11727.046255 5905.505793 6425.626784 28892.863644 29260.809445 28064.052210 25357.758345 19271.863059 18324.259548 17322.512621 15289.983721 12781.229446 8467.185901 5191.137517 31240.607851 26072.011963 27779.746264 22657.497210 23239.876207 21751.362794 17948.783128 15046.140162 13012.689972 8286.007945 8633.199222 27601.828001 28297.910949 25589.537237 24020.851657 23760.485849 21683.895405 15374.339339 12539.469191 9520.513148 8320.055465 4009.880955 28992.311320 26745.037600 21663.027168 18441.351071 24118.128811 16560.238106 19472.761862 12711.946495 10627.758280 10750.390818 2798.642068 27712.333312 31646.252022 26944.227657 26651.569368 18457.799190 22559.837705 15408.353483 17031.361930 9677.849543 8471.314332 8632.610380 25466.204313 24931.949863 21278.824612 23383.425506 26075.293953 13177.701138 18231.131775 12439.196110 13423.223567 9913.151233 9554.951548 26718.488401 28463.316083 27101.830459 26435.770371 18100.933120 23948.760469 14627.459587 9811.159484 10296.812093 10437.535916 8371.711561 28004.229113 26903.212317 20586.107717 25966.668589 18366.962242 16050.284766 23781.873464 20912.311378 14387.440469 9757.093258 7738.888571 6875.671086 11945.815320 12475.651362 6515.197251 6127.918306 9202.648683 9152.758396 7217.571665 7257.191438 3634.249255 2470.412531 2415.694902 -3857.057076 -3916.110208 8866.242959 1292.742134 11464.583108 8204.731320 3459.481897 9477.359429 6619.134128 2236.849076 7473.525141 3275.197782 2038.633909 2863.092366 2390.545768 -1961.536776 5690.494762 6595.577379 6841.676153 6697.685735 4208.354708 4194.862762 5187.737368 3784.759321 5371.341488 2340.183551 2320.450743 2880.755245 3049.595784 2692.175670 8594.148282 5689.610324 6121.138071 9556.701627 5338.848324 6699.416101 7965.817968 4912.451279 4509.567200 5310.644640 4677.194967 2319.749472 1194.811447 1514.739065 6747.334684 9426.769329 7570.652846 3685.243588 9215.216835 6698.975704 5595.183332 5031.008912 6284.152191 4341.769909 3257.387367 4193.439836 2912.429925 3225.259085 8598.073231 10189.920355 6421.102140 11285.430872 7010.619232 6371.206198 6809.237425 5645.216624 3546.635771 5727.872980 5615.292945 2137.985865 1642.974543 6519.474389 11594.059783 4096.244844 5826.126371 4074.595813 2641.306198 4091.185256 6647.499287 5534.984994 3001.988728 3791.539706 4419.536036 2036.971035 2922.304027 7505.767267 5184.698469 10247.058617 5823.750899 6117.431840 3972.938147 7292.155152 4758.348910 5021.822835 2053.534263 3069.362100 4824.556551 5588.651249 2181.477275 7123.433880 8554.666957 7712.950725 2882.631089 3455.384242 8559.138312 2283.865671 4016.293268 269.088911 728.898184 4936.298680 1406.658048 4242.180687 -69.029230 -4010.551807 6881.243015 6394.315213 5877.289837 3716.252521 6627.645817 2418.345678 5662.933846 2472.684083 4954.955944 1486.182375 2600.632807 1668.580763 -57.048087 1822.439306 3274.975007 6410.809242 7979.805974 4631.324678 2944.721438 3540.583674 5359.662419 5198.038718 6116.150720 2684.288153 3207.039012 3003.658251 2689.704037 1638.475394 8093.626201 732.960351 5913.986131 10650.445055 3312.237063 4055.255483 1067.215671 4001.041739 4730.175929 3413.218118 2361.953568 4608.884309 798.341944 3097.336570 5163.960884 1531.026005 1287.277014 3338.026882 1713.658064 2185.774553 4343.563192 7157.348185 9308.114613 8678.935610 2832.725946 2701.153933 351.530350 2478.963379 569.569682 4270.197474 3995.310606 854.844266 4615.250051 1237.828473 3588.687917 3151.282273 2130.188976 4325.776914 3047.186639 977.823717 283.283730 1780.147902 836.780328 2958.834386 1308.227028 1670.128217 2116.095749 2509.386095 4353.146262 1811.322545 1492.872042 315.679594 2038.189465 934.384298 487.463932 1016.463862
</DataArray>
<DataArray type="Float64" Name="Velocity" NumberOfComponents="3" format="ascii">