<VTKFile type="PolyData">
<PolyData>
<Piece NumberOfPoints="1945" NumberOfVerts="1945" NumberOfLines="0" NumberOfStrips="0" NumberOfPolys="0">
<PointData>
<DataArray type="Float64" Name="Pressure" format="ascii">
 21545.820390 18302.799973 14805.675518 8752.145736 13946.726603 7835.738485 18881.670178 16996.207232 17784.844526 13231.145923 18956.404679 12667.463160 20247.038648 15287.282861 21637.529241 17156.856286 24103.487859 18162.873519 25466.157391 19752.488778 26607.174787 20724.576924 25406.456743 20735.031078 26058.162885 22259.495221 26100.961914 22651.275939 26819.951427 23447.592291 28004.510895 26056.422446 29273.257823 28953.362027 30217.345305 31350.794291 30461.739974 32135.827010 30638.839990 32271.795260 30866.083431 32159.133516 31210.761155 32085.648488 31660.467807 32516.325970 32017.658213 33196.250665 32151.641183 33889.729701 32072.328989 34343.589910 31939.223711 34554.724956 31848.160258 34431.202826 31830.997563 33897.448536 31968.840015 33050.740511 32268.269808 32827.208191 32687.049930 33183.632633 33105.499802 34115.241389 33451.480743 35428.058063 33670.514422 36886.644885 33727.901112 38262.974673 33614.971289 39422.782896 33342.831947 40296.941049 32934.191257 40861.637975 32419.138004 41126.795837 31823.204393 41133.781575 31162.861263 40946.963693 30472.370550 40601.673666 29779.760360 40108.808726 29097.845330 39490.537223 28443.750554 38780.952720 27837.764214 38041.289894 27298.474611 37322.579908 26825.140387 36638.939910 26418.568659 36012.772660 26080.458493 35470.296849 25802.133198 35023.684305 25581.246748 34685.697889 25413.050780 34444.369413 25294.189654 34292.687022 25222.075467 34221.161131 25194.355244 34218.029869 25208.531609 34255.481882 25259.338411 34341.725151 25341.905364 34438.216859 25448.860816 34524.719030 25571.498588 34586.868360 25699.408796 34609.178753 25821.856203 34581.450229 25928.705606 34499.951529 26011.324111 34366.762305 26063.316158 34188.835984 26080.995494 33975.954447 26062.700818 33732.983899 26009.242623 33467.912466 25923.963297 33191.285327 25809.851952 32914.536807 25674.326724 32646.524994 25520.915731 32382.767921 25350.013571 32111.454737 25165.565010 31829.336809 24970.597005 31541.505156 24762.817507 31234.071495 24541.847260 30901.124995 24306.525617 30546.120973 24052.779019 30165.868221 23775.612352 29756.346852 23474.258736 29338.844000 23144.701464 28904.493167 22787.706377 28483.348449 22403.710514 28088.369226 21998.132518 27708.452562 21583.685406 27432.010932 21158.694896 27121.631995 20763.990348 26997.070973 20348.035240 26816.491940 19942.233355 26691.995476 19560.885194 26644.415093 19154.505607 26395.409885 18786.318961 26476.704827 18319.474115 25944.940858 17866.162637 26189.671254 17444.892666 24880.302604 17367.600092 26488.411161 16351.618338 24260.509895 16634.920675 25307.550973 14436.291854 20964.626304 13154.935240 23937.772663 8735.139151 17419.251586 5467.629708 7352.543719 18618.975124 17526.563655 16158.178392 14872.536697 15163.100784 13746.275947 12700.950850 11777.030294 10608.529739 9331.396566 8159.235095 7128.829261 6186.975090 5319.812268 4512.068612 3620.770090 2723.786552 2253.426529 1359.136593 826.510118 163.264758 3292.389742 -1668.688112 -5627.947164 -4592.877540 -3761.494490 -3134.153899 -2585.044806 -2068.616589 -1594.168876 -1180.839043 -841.220190 -577.352999 -382.584128 -245.327961 -152.561976 -92.192994 -54.236461 -31.112320 -17.428080 -9.545591 -5.117913 -2.688871 -1.385611 -0.700934 -0.348349 -0.170197 -0.081789 -0.038637 -0.017849 -0.007990 11629.049116 11610.194192 9864.175834 6547.888937 9974.079293 7827.969228 7961.769591 8534.301559 8380.135743 7972.004254 8150.935392 8212.189251 7865.572405 7056.900378 6059.487109 4747.570818 2729.514345 2908.217795 901.331942 949.968966 -6676.879785 364.282794 -4033.797310 -8694.373210 -4666.965569 -3739.426876 -3141.981391 -2592.355831 -2077.417796 -1606.163639 -1195.283221 -856.310397 -591.397808 -394.513565 -254.738759 -159.544287 -97.110461 -57.546746 -33.253697 -18.764842 -10.353600 -5.592134 -2.959729 -1.536458 -0.782985 -0.392000 -0.192937 -0.093398 -0.044433 -0.020577 -0.008554 22671.327024 21999.517971 16981.006194 17723.142341 15795.903397 11431.892391 8195.527838 7001.361534 6608.502371 -2026.167884 -6163.315954 -3070.433698 -1141.766868 -449.732894 -99.399266 36.218797 62.290308 46.158763 22.442829 4.468303 -5.391084 -8.987224 -8.942752 -7.313794 -5.337355 -3.599528 -2.285909 -1.382820 -0.802999 -0.450090 -0.244517 -0.129162 -0.066511 -0.033457 -0.016470 -0.007946 -0.003762 -0.001750 -0.000801 -0.000360 -0.000160 -0.000070 -0.000030 -0.000013 -0.000005 -0.000002 -0.000001 -0.000000 -0.000000 -0.000000 -0.000000 8440.997142 8510.292972 6697.245569 5593.315880 4709.843753 3456.358479 2485.769279 2049.075864 1772.037702 -510.120216 -2002.171725 -1841.470538 -1119.905158 -497.229058 -142.594095 10.439559 50.560664 42.653959 22.658489 5.791121 -4.142238 -8.166713 -8.531049 -7.177808 -5.348159 -3.668533 -2.364226 -1.449213 -0.851850 -0.482939 -0.265209 -0.141545 -0.073615 -0.037389 -0.018578 -0.009046 -0.004321 -0.002028 -0.000935 -0.000425 -0.000190 -0.000084 -0.000036 -0.000016 -0.000007 -0.000003 -0.000001 -0.000000 -0.000000 -0.000000 -0.000000 -0.003808 -0.002140 -0.003536 -0.002052 -0.002090 -0.001444 -0.000846 -0.000797 -0.000374 -0.000386 -0.000169 -0.000180 -0.000076 -0.000082 -0.000034 -0.000037 -0.000015 -0.000017 -0.000007 -0.000007 -0.000003 -0.000003 -0.000001 -0.000001 -0.000001 -0.000001 -0.000000 -0.000000 -0.000000 -0.000000 -0.000000 -0.000000 -0.000000 -0.000000 -0.000000 -0.000000 -0.000000 -0.000000 -0.000000 -0.000000 -0.000000 -0.000000 -0.000000 -0.000000 -0.000000 -0.000000 -0.000000 -0.000000 -0.000000 -0.000000 -0.000000 -0.000000 -0.000000 -0.000000 -0.000000 -0.000000 -0.000000 -0.000000 -0.000000 -0.000000 -0.000000 -0.000000 -0.000000 -0.000000 -0.000000 -0.000000 -0.000000 -0.000000 -0.000000 -0.000000 -0.000000 -0.000000 -0.000000 -0.000000 -0.000000 -0.000000 -0.000000 -0.000000 -0.000000 -0.000000 -0.000000 -0.000000 -0.000000 -0.000000 -0.000000 -0.000000 -0.000000 -0.000000 -0.000000 -0.000000 -0.000000 -0.000000 -0.000000 -0.000000 -0.000000 -0.000000 -0.000000 -0.000000 -0.000000 -0.000000 -0.000000 -0.000000 -0.000000 -0.000000 -0.000000 -0.000000 -0.000000 -0.000000 -0.000000 -0.000000 -0.000000 -0.000000 -0.000000 -0.000000 -0.000000 -0.000000 -0.000000 -0.000000 -0.000000 -0.000000 -0.000000 -0.000000 -0.000000 -0.000000 -0.000000 -0.000000 -0.000000 -0.000000 -0.000000 -0.000000 -0.000000 -0.000000 -0.000000 -0.000000 -0.000000 -0.000000 -0.000000 -0.000000 -0.000000 -0.000000 -0.000000 -0.000000 -0.000000 -0.000000 -0.000000 -0.000000 -0.000000 -0.000000 -0.000000 -0.000000 -0.000000 -0.000000 -0.000000 -0.000000 -0.000000 -0.000000 -0.000000 -0.000000 -0.000000 -0.000000 -0.000000 -0.000000 -0.000000 -0.000000 -0.000000 -0.000000 -0.000000 -0.000000 -0.000000 -0.000000 -0.000000 -0.000000 -0.000000 -0.000000 -0.000000 -0.000000 -0.000000 -0.000000 -0.000000 -0.000000 -0.000000 -0.000000 -0.000000 -0.000000 -0.000000 -0.000000 -0.000000 -0.000000 -0.000000 -0.000000 -0.000000 -0.000000 -0.000000 -0.000000 -0.000000 -0.000000 -0.000000 -0.000000 -0.000000 -0.000000 -0.000000 -0.000000 -0.000000 -0.000000 -0.000000 -0.000000 -0.000000 -0.000000 -0.000000 -0.000000 8146.121929 13209.686532 11737.526879 10440.671996 9510.893887 10085.049498 9986.730398 8240.328000 8452.335127 7949.611705 7961.132690 16047.737612 13578.107171 10406.024249 10976.983470 10315.856241 9318.749937 10067.189590 9616.470323 9297.494444 9690.707236 9281.312132 13468.528300 13710.024342 15025.248055 14136.811538 13933.072933 12114.668035 12209.715048 11157.748302 10829.129431 10679.517158 10401.758598 14198.059854 16898.680520 12901.590855 13537.495891 13182.112253 11705.490201 12254.273831 11946.300579 11909.033408 11941.591510 11718.240560 17561.847564 15890.477425 15384.880624 16602.412809 15812.377334 14936.235114 14199.254418 12625.467657 13413.775516 13034.506698 13181.836029 18207.068129 18093.780069 17581.187441 16691.499310 14494.481926 14332.259563 14410.379419 15731.393795 15030.314939 14103.134340 14234.750349 18877.421589 18690.365325 18033.441509 15661.056906 16625.406068 17360.008392 16104.842725 14682.835547 13868.561786 14748.246568 15051.725760 19421.849381 19995.396046 17999.039599 18603.506576 18131.422091 15519.442429 14457.159563 16546.017734 17167.515957 15797.327564 14851.684267 20573.579944 20156.985364 20034.309164 18858.913177 16369.560482 16840.785100 18104.928786 17008.890200 13782.153980 14266.103672 16099.526609 21892.744553 22388.662730 20345.224930 18414.989737 18898.801366 18934.375659 15082.606932 14677.745136 18683.154707 19197.237698 16203.393562 24309.117232 23414.594099 20396.568131 21001.108463 19934.276708 16017.999603 17850.786498 21379.518755 17310.189698 11221.937011 18579.134526 26486.878463 23551.777597 21960.313934 22125.265696 18272.489567 20254.498958 21404.939724 13119.241160 17675.636009 22945.134850 15390.340666 27836.195780 23804.274541 24470.953010 22817.089522 19835.061847 20632.732675 15284.679042 19290.042500 22858.648136 7390.438256 13691.347667 27608.823451 24056.210032 26355.925805 22412.345971 20620.516343 20794.142528 18667.195215 18065.278793 11858.872727 15326.439824 12423.992694 27221.009495 25917.533007 28094.836875 21158.350410 22047.849235 21357.058017 16639.060797 19104.698304 19029.879088 16913.641815 15440.919098 26958.660441 27767.812004 27483.549039 21207.972874 24774.653989 16062.935739 18107.381217 15059.869025 13794.972209 11039.809901 21750.679845 27467.774875 29357.945651 26176.183052 23677.783873 23933.523002 16053.448972 22620.580543 6437.767610 22966.962198 11385.722093 3189.438839 28676.105151 30266.600187 26275.920463 26462.245695 20260.698824 21703.314262 18396.676948 17787.520161 11442.183426 16324.598265 9717.331730 29995.522775 30071.379125 27200.962497 27280.848794 19981.190262 24164.895124 11951.420271 20383.738913 12619.337642 7597.743106 -11880.710787 31657.083751 30241.955993 28811.175173 26313.818502 22419.623867 21278.088319 17953.903199 13667.333360 16873.577699 5393.068173 -9281.629468 33325.251827 30619.528557 29885.079642 26014.175570 24668.815525 18342.567691 23478.339043 6211.522703 18266.311048 9314.163359 -6081.923697 34757.331915 31331.049022 30116.750009 26465.583268 25007.795407 19074.314751 21575.699058 11062.018684 16794.623509 11655.698857 17942.407837 36008.002876 32354.929882 30233.248515 27339.044083 24233.154875 21317.838679 18188.516042 16381.198185 10073.206223 12640.433097 11631.219642 36957.347272 33220.754446 30606.968393 28246.996202 24158.853666 22396.343745 17598.578151 16956.274224 8324.477132 11852.631422 10422.865851 37526.857673 33940.347670 31298.546878 29111.964436 25045.935341 22727.802813 18359.636959 15812.370828 11348.901074 8856.488193 11983.341268 37626.622634 34689.597189 32095.983838 30114.978195 26319.879188 23298.144778 19339.303285 15650.441258 13310.692163 5286.369953 15358.780073 37236.226034 35399.377444 32953.653426 31156.262851 27691.097410 24359.920445 20170.145875 16132.764896 13868.032482 4354.511328 16152.327447 37040.067466 36002.555330 33853.069825 32181.232098 28767.812377 25884.725363 21376.840472 17363.690516 14176.744707 5449.752121 13073.729339 37233.013873 36463.703172 34529.302566 33060.672707 29504.515037 26929.973949 22114.203404 18430.541462 14152.165831 6750.456410 9698.790349 37879.752345 36824.737504 34902.187515 33542.311767 29855.190815 27621.379855 22758.634827 18960.317820 14051.429177 7585.194724 7592.667027 38791.896890 37146.964989 35100.397680 33697.077073 29783.507356 27509.133963 22597.711938 18846.075189 13912.035812 7938.971717 6449.950118 39872.224246 37502.840875 35221.200475 33729.112846 29498.207669 27142.641101 22593.672848 18438.170417 13626.186884 7847.033925 5753.842121 40956.162692 37953.164655 35362.774322 33758.959641 29301.807563 26686.648891 22231.001234 17902.590005 13520.946289 7566.201382 5245.162011 41864.503910 38492.247313 35612.462032 33867.760368 29342.973328 26384.190683 22109.924673 17655.030641 13069.365304 7303.348863 4831.494298 42490.828568 39041.931829 35961.418134 34057.880454 29623.905891 26270.431044 22203.067230 17539.524484 12948.998373 7356.030495 4521.504739 42797.163801 39487.753365 36319.492028 34244.897753 30029.717922 26276.605285 22404.953054 17521.575973 12910.303760 7276.257654 4346.887204 42803.689066 39766.750433 36594.866714 34317.194268 30397.994742 26278.507294 22584.061203 17528.728076 12895.899118 7263.227624 4253.569518 42516.059583 39791.028841 36707.470797 34207.847319 30603.473315 26171.454171 22629.292546 17464.998652 12823.006765 7233.391336 4169.282166 42008.372118 39569.895352 36622.546461 33902.769891 30590.783803 25909.972922 22497.976801 17290.058029 12660.966086 7154.142300 4069.213520 41413.372915 39190.997636 36351.196721 33423.983948 30369.749988 25506.179264 22206.000593 17011.332496 12419.682627 7028.048258 3952.873773 40730.789344 38658.526026 35926.744905 32826.336329 29989.596152 25003.244589 21800.054442 16660.788358 12125.887794 6869.554249 3827.244641 39954.674308 38013.290698 35394.973278 32162.417589 29504.976270 24446.948237 21329.927830 16273.449467 11807.707497 6695.352931 3700.547807 39133.581004 37323.920381 34783.009981 31462.525656 28959.670910 23871.819963 20833.164751 15875.059338 11485.630569 6518.085123 3578.624569 38286.279686 36612.431535 34120.045614 30751.827983 28384.371653 23298.737392 20332.914978 15480.616857 11171.495797 6345.083284 3464.357049 37439.051771 35886.643274 33439.402202 30051.012144 27799.880552 22739.903400 19843.019064 15098.481591 10871.604690 6180.065844 3358.725087 36610.593626 35168.596828 32768.858767 29375.023698 27223.681702 22205.217558 19373.699863 14734.795342 10590.096352 6025.234297 3262.028547 35823.431257 34490.511252 32131.499170 28738.699646 26673.344325 21705.032541 18934.600850 14395.850321 10330.855951 5882.565072 3174.614247 35099.625166 33869.909574 31545.036878 28157.907009 26165.792559 21249.964505 18535.223364 14088.306828 10097.852779 5754.135554 3097.042651 34458.831685 33322.880506 31026.226794 27646.693610 25715.316361 20849.496632 18183.869225 13818.193935 9894.582666 5641.852966 3029.913591 33938.413746 32863.889292 30587.013032 27214.710432 25332.065541 20510.366133 17886.283873 13589.731494 9723.338343 5547.021988 2973.599396 33535.801441 32494.067292 30233.831522 26866.125721 25021.056407 20235.480171 17644.810125 13404.587679 9584.732486 5470.031105 2928.044817 33237.571958 32213.257837 29968.100882 26599.279814 24782.223217 20023.690438 17458.271720 13261.721037 9477.595602 5410.259329 2892.692902 33036.094116 32017.256132 29784.188910 26407.799704 24611.200712 19870.231683 17322.438267 13157.703348 9399.195956 5366.188295 2866.530385 32917.229103 31894.756317 29672.026541 26282.151667 24500.285190 19767.582263 17230.848022 13087.348946 9345.668984 5335.655253 2848.217755 32865.221092 31832.509640 29618.055308 26210.128898 24439.501092 19706.544231 17175.785087 13044.486713 9312.544266 5316.172759 2836.262602 32867.631789 31822.979446 29609.055017 26178.530349 24417.860102 19677.350222 17149.244801 13022.734584 9295.271134 5305.244236 2829.195264 32863.636125 31849.380740 29630.597625 26174.889203 24424.482941 19670.603440 17143.729421 13016.142467 9289.650043 5300.610020 2825.707812 32899.135212 31893.588353 29666.849432 26188.226871 24449.304795 19677.901537 17152.719511 13019.575230 9292.084433 5300.370269 2824.723628 32921.555009 31943.182748 29703.593612 26208.807447 24483.094524 19692.016949 17170.715174 13028.749908 9299.597551 5302.958038 2825.380446 32923.022079 31990.957399 29728.580790 26228.370987 24517.252894 19706.675503 17192.876604 13039.946006 9309.627649 5306.983549 2826.936992 32895.473339 32026.869516 29730.072818 26240.121301 24543.378488 19716.103278 17214.435093 13049.534655 9319.704910 5311.029322 2828.648557 32836.180889 32042.246052 29699.333984 26238.567815 24552.974604 19714.683016 17230.186706 13053.574936 9327.174126 5313.507242 2829.680752 32747.465531 32029.929525 29630.698084 26219.046446 24537.630861 19697.056026 17234.446427 13047.785521 9329.149270 5312.674816 2829.119311 32634.422910 31983.989142 29521.750018 26177.567585 24489.698432 19658.641556 17221.546556 13028.028305 9322.815722 5306.862344 2826.098369 32503.698288 31900.969097 29374.230638 26111.502173 24403.781413 19596.652492 17186.776460 12991.122121 9305.952886 5294.835331 2820.020949 32361.064157 31780.211121 29194.387215 26020.203030 24278.147300 19511.214703 17127.637424 12935.820757 9277.452517 5276.084412 2810.759042 32200.232722 31615.761227 28988.866168 25904.800328 24115.155651 19405.348089 17044.398780 12863.467001 9237.689519 5250.929795 2798.693460 32069.038353 31414.234202 28766.527270 25768.196709 23921.710675 19284.806874 16939.827719 12777.627729 9188.384789 5220.407729 2784.578334 31891.575185 31188.816614 28538.955677 25613.927851 23706.961538 19156.787526 16818.852046 12683.342432 9131.935010 5185.882670 2769.305144 31703.404541 30943.513064 28313.043367 25447.926610 23481.563566 19027.192937 16686.688674 12586.154471 9070.829046 5148.636025 2753.652635 31514.062582 30688.334550 28090.403196 25273.052284 23256.001994 18901.008645 16547.487009 12490.520653 9007.179396 5109.732051 2738.130835 31327.367762 30438.827261 27876.742963 25090.669180 23034.995179 18780.338500 16404.836610 12399.283556 8942.472327 5070.161167 2722.974995 31124.620228 30171.323799 27666.230347 24902.658950 22820.926065 18662.690861 16260.529580 12313.761024 8877.692484 5031.142715 2708.363739 30888.279588 29887.921315 27454.169296 24703.826102 22613.674604 18545.218940 16115.084451 12233.910234 8813.324165 4994.070626 2694.694829 30633.580210 29593.435911 27232.586260 24489.036824 22407.105184 18423.163748 15968.294790 12158.924259 8749.542592 4960.099859 2682.432976 30351.113488 29282.108616 26990.859268 24258.743792 22197.672151 18291.915305 15818.877639 12086.642661 8685.971203 4929.739807 2671.755953 30038.562997 28951.847367 26722.642364 24006.864358 21979.498536 18148.545450 15666.589591 12014.327609 8621.215327 4902.175368 2662.274091 29694.711180 28602.794690 26429.465990 23734.002827 21747.548390 17986.648370 15508.135352 11937.435746 8552.537418 4874.944968 2652.417193 29325.101014 28241.521309 26114.674470 23443.491409 21506.268778 17808.126069 15342.938077 11851.348740 8476.286854 4844.618875 2639.691731 28926.409335 27857.184169 25772.262441 23131.394466 21244.598902 17607.586735 15166.834399 11752.146423 8389.036594 4807.009003 2621.989717 28525.444849 27463.000346 25424.713789 22819.662593 20969.134020 17387.668303 14973.166149 11633.383813 8288.171737 4758.372229 2597.002096 28104.786295 27037.293208 25047.643385 22493.751517 20681.552166 17157.399886 14771.486609 11496.100546 8173.692177 4699.031792 2562.564600 27702.823183 26623.923988 24676.473483 22160.837244 20375.025639 16893.336349 14546.521066 11335.530442 8042.847702 4630.138266 2519.895265 27334.195009 26231.217814 24331.865763 21838.312069 20084.112048 16641.048462 14319.796490 11165.726157 7902.877550 4552.263616 2470.900875 26960.466599 25793.250348 23966.289849 21493.374223 19763.110058 16367.913709 14071.727730 10975.394650 7756.443262 4469.276854 2415.798599 26719.964197 25481.161926 23697.166890 21198.421678 19466.830848 16099.536356 13824.364931 10774.870929 7605.889942 4386.239863 2360.984755 26353.168810 25017.558878 23351.098560 20848.856011 19163.998430 15846.724986 13597.791364 10584.448961 7453.445315 4296.182371 2302.257626 26161.359210 24746.453642 23186.418066 20573.595343 18855.240848 15527.415539 13291.707212 10349.894326 7300.410184 4220.339647 2246.279816 25857.082113 24236.530458 22800.629243 20179.252414 18574.258333 15329.433849 13114.591925 10175.632123 7134.635460 4115.528538 2194.749975 25600.272247 24026.043528 22697.439679 19871.647065 18208.899345 14899.996384 12710.446411 9907.818044 6991.489422 4043.442789 2128.793329 25391.045037 23539.286773 22284.328541 19404.619651 17922.207219 14735.958607 12535.239212 9671.708709 6756.783234 3928.032284 2092.721508 24818.591017 23077.321214 22097.490234 19002.198105 17474.715228 14209.574677 12130.642430 9509.150846 6653.427486 3787.716711 2018.672234 24788.637289 23057.864763 21796.970405 18469.075522 17204.865879 13905.866755 11671.472367 8946.306519 6362.725321 3733.919327 1929.514147 23676.746587 21661.119355 21065.785146 17926.810232 16693.243379 13387.203151 11715.385959 8990.349127 6041.686539 3554.154169 1878.488554 24322.630393 22842.824375 21863.847172 17595.323558 16313.554172 13025.071127 10549.120318 8542.044574 5998.178202 3317.928289 1893.292929 22171.197733 19604.012836 18935.876515 16772.101384 15703.098892 12482.742102 10558.056585 7809.671168 5582.155202 3154.346573 1619.075604 24112.565243 23311.576469 22458.882304 16384.125051 16431.375277 12774.174740 10643.394586 8316.290644 5559.278195 3302.334326 1739.881450 22146.316411 18284.051076 19974.684069 15006.201432 12490.758847 11279.110944 8261.980072 7108.189098 4443.299890 2355.974801 1791.745844 23185.229066 21227.935036 23402.347305 18400.894959 17489.623227 13489.767637 10652.705230 8099.516721 5401.373633 3518.808905 1248.307226 20627.237287 19630.017766 19514.019165 14740.364823 13628.309198 8796.320786 9056.547197 6561.797840 4168.731623 1661.631127 883.196775 22500.072649 23728.905390 18973.051170 16129.765480 14947.860465 10392.477405 9760.150652 5955.647512 4297.997127 4179.449655 2262.304270 7896.125271 7896.104655 7843.414562 7708.879068 7606.507815 7158.936717 6233.557926 5151.951681 4184.287227 3156.747182 2034.537520 1381.636323 1753.767459 2978.762078 9311.415244 9056.474102 8574.674751 7894.154371 7327.507304 6667.367816 5970.411031 5334.036633 4397.626492 3767.371544 2750.271725 1884.877291 -163.361862 787.280834 10329.728592 10115.314681 9966.321475 9546.048022 8925.578889 8083.241972 6890.530299 5792.913674 4634.381829 3644.272410 2421.057609 1801.128989 1029.647179 250.463671 11397.743295 10968.355053 10448.079268 9544.288660 8634.865213 7759.532589 6747.763743 5708.670736 4837.540635 3609.709093 3171.125091 1882.134448 847.585758 476.056076 12884.510205 12477.657688 12030.804688 11243.816909 10301.728143 9034.647132 7814.687086 6311.194095 5580.597092 4536.813172 3128.470417 2338.639743 1371.998294 545.579644 13438.176675 13220.967683 12452.640033 11393.711674 10543.093654 9326.733713 8200.975560 7125.359566 5641.136128 4551.791056 3743.871578 2339.251596 1256.052330 599.490588 14767.848117 13966.016210 13070.788037 12156.907817 11062.250352 9792.765471 8416.175982 7479.703924 6995.435850 5841.984824 4491.792714 3106.416787 1858.837623 848.540339 13847.510800 13420.583475 12905.511337 11861.473494 10878.753323 10035.292483 9240.149378 8077.828983 6905.129524 5866.850417 4811.744017 3232.028228 1810.566656 893.515940 16073.491505 15036.868399 13731.586043 12435.682936 11043.273909 9460.429061 8323.408556 7885.895106 7525.470785 6533.164697 5341.717098 3726.335059 2084.007475 1088.423312 13007.057323 13322.765503 13122.759421 11898.182195 11169.201386 10708.852120 9648.029921 8181.689581 7064.585811 5953.281007 4971.155061 3663.579747 1967.743876 984.927156 19545.939657 16925.804096 14766.203139 14991.810033 13782.160558 11245.102525 9070.132691 7703.530300 6697.377275 5737.913980 4762.784982 3557.460183 1633.506238 969.471679 14338.033359 17751.303405 17490.261652 14768.024404 11344.968184 11361.231341 11484.941889 10036.924597 7569.233591 5553.331539 4517.387942 3715.933509 1329.332595 765.211003 18685.690986 8578.751402 14004.697579 13213.967380 15568.686309 15606.663681 12246.697703 8504.154570 6943.881055 6073.920991 5251.946983 3072.783648 -46.005927 848.451097 13578.899097 14770.133609 8140.423632 15406.507243 10510.139697 12315.563844 9563.589903 8176.335585 7718.431571 5163.773886 3573.986144 512.291037 900.459397 886.321572 38732.120192 7646.558616 17633.941658 1651.179142 22638.246589 5537.605356 32343.923392 13074.071420 6905.062669 7704.024263 4265.856969 2017.275574 1645.696430 1952.930091
</DataArray>
<DataArray type="Float64" Name="Velocity" NumberOfComponents="3" format="ascii">