<VTKFile type="PolyData">
<PolyData>
<Piece NumberOfPoints="1945" NumberOfVerts="1945" NumberOfLines="0" NumberOfStrips="0" NumberOfPolys="0">
<PointData>
<DataArray type="Float64" Name="Pressure" format="ascii">
 23567.565121 22878.024686 24678.889963 23967.067404 23806.997990 25076.747978 21520.017843 23359.761923 21041.550317 22906.709630 20439.139293 23056.753763 20778.643243 23457.885192 20802.179600 23814.468842 23163.519465 25252.020484 23377.645706 24930.926383 22385.352395 23630.612345 22962.167349 25086.916907 19724.704490 22843.875852 22005.193164 24000.181526 21237.474353 23226.144125 22182.315946 23789.038422 22502.500400 24454.981283 21030.749553 21962.543819 23206.241169 24684.161486 19629.870246 21921.442173 23253.209520 24008.903190 20856.260428 22523.449115 21637.552388 24031.889108 21523.528833 23007.537247 21275.513697 23338.656135 22925.897100 23360.369259 23930.715698 23121.829689 24240.363176 23261.872720 26829.844237 24703.575612 25450.103627 23114.451278 26292.561782 24191.981097 24735.065156 22553.905366 25635.310410 22842.319917 23941.977345 21466.066204 22746.940090 21926.389677 23101.518660 22731.554134 23571.546100 23012.885624 25668.223923 24035.130767 24753.925372 23226.297605 22977.689626 22316.072717 21653.096583 21920.115506 21093.141118 21563.732362 22097.919376 21853.107456 20792.068423 20548.739497 20918.956953 21441.868333 20439.090475 21279.709826 20396.244777 20717.766676 22511.542209 21652.294412 22266.948840 21429.385562 22378.240576 22032.718757 22078.232812 21348.125755 21741.048401 20321.452954 22785.854506 21255.954707 22130.407281 20989.732821 20720.148427 20214.278969 20501.647064 20120.116081 19279.563566 18314.074103 19985.005196 18060.182786 17279.464559 17616.920849 17335.290092 17880.851428 16321.356605 16053.692835 17103.245068 16401.340383 16452.870398 16295.269571 17521.360698 16645.427127 16514.670597 16111.077983 16234.678142 15808.335605 14983.879394 15344.997550 15903.830490 16834.122869 16434.191208 16900.537230 15755.315465 16275.717860 15971.622463 16576.961490 16543.757494 16886.638556 16694.380495 17297.873926 16645.615058 17205.494008 16843.714685 17563.078205 16472.890740 17175.733908 16866.267374 15922.403419 17348.763040 15303.918090 17780.778995 16260.906336 18614.889371 16981.514724 16042.299880 15683.726578 16781.547628 16019.035414 16340.976213 15232.287093 17132.655030 15273.299625 16455.989193 14731.260128 17300.713885 15476.639755 15587.582752 14256.131767 17092.328659 15382.816910 15374.489653 15070.812247 15719.434131 15921.696182 14809.305198 14841.277335 15074.386729 15634.298689 14287.833212 14903.467217 15611.892508 15712.873703 14715.646132 14923.460333 16063.563372 16249.406397 14304.143700 14406.234083 14532.254608 14651.333762 14356.257799 14726.171054 13956.916106 14799.748827 13907.262469 14165.929688 14023.768354 13818.446885 13370.115189 12760.871302 13634.629280 13264.632068 14031.689154 14115.768618 22610.889891 24160.568888 23874.922724 21727.335849 18770.106424 16869.229461 15558.234369 13908.957653 11275.813558 9507.029856 8457.356282 6300.257314 4773.570478 3636.074761 2520.004561 -1494.377244 -4867.210949 -4901.549548 -3979.304430 -3269.453125 -2730.157117 -2302.812608 -1969.533899 -1727.982383 -1577.836742 -1514.151208 -1525.970468 -1597.703053 -1711.420358 -1849.071046 -1994.182975 -2132.949618 -2254.754044 -2352.246689 -2421.108116 -2459.618631 -2468.135692 -2448.555379 -2403.810130 -2337.434096 -2253.210883 -2154.906130 -2046.079191 -1929.963252 -1809.401049 -1686.823340 -1564.260003 -1443.385473 -1325.665167 -1213.030954 -1112.124671 21419.349052 22801.356827 23021.501300 21421.487816 18648.937035 16765.607768 15762.762288 13947.860049 11066.382195 9131.024182 8579.682716 5497.539632 4590.158879 2940.703423 3060.401108 -2601.932516 -6789.381495 -4760.250121 -3954.260566 -3291.633164 -2752.650787 -2322.518632 -1988.143265 -1746.184599 -1595.091488 -1529.456047 -1538.435652 -1606.804998 -1717.039328 -1851.423662 -1993.719060 -2130.248976 -2250.438957 -2346.915697 -2415.291509 -2453.753362 -2462.556140 -2443.495900 -2399.415451 -2333.774118 -2250.297104 -2152.707696 -2044.537249 -1929.002878 -1808.940394 -1686.779320 -1564.546045 -1443.872748 -1325.929270 -1210.831138 -1093.619553 12834.593430 12971.938250 11849.060399 10541.415518 9212.818651 8868.604132 7124.045147 7254.808998 7000.751720 7405.484600 5096.164859 3206.597923 2323.757978 1763.174165 1387.376903 1117.510157 907.766665 731.750125 574.745696 429.053194 291.144946 159.915535 35.587588 -80.979017 -188.720089 -286.628827 -373.901439 -450.004398 -514.690428 -567.982927 -610.142911 -641.628184 -663.051087 -675.138618 -678.696940 -674.581083 -663.669827 -646.845340 -624.976921 -598.908139 -569.446712 -537.356578 -503.351721 -468.091455 -432.176950 -396.148793 -360.484973 -325.595994 -291.797031 -259.138133 -226.325388 13578.528976 12972.410756 12042.440155 11060.961441 9822.628810 8937.344241 7685.929672 7109.040801 6566.566702 5685.181912 4442.801071 3246.818925 2379.111820 1802.239678 1411.354229 1131.499642 915.709301 736.218265 577.333155 430.723691 292.466934 161.209364 37.016863 -79.349478 -186.886222 -284.621729 -371.770033 -447.803918 -512.475109 -565.801723 -608.037344 -639.631628 -661.188948 -673.429029 -677.151703 -673.206665 -662.468315 -645.815289 -624.114073 -598.206015 -568.897093 -536.949890 -503.077361 -467.938073 -432.132744 -396.202034 -360.626071 -325.828915 -292.208026 -260.305734 -231.928734 -1038.394853 -1004.179923 -1008.755075 -975.681344 -933.824014 -914.816821 -839.830029 -837.316863 -758.617045 -758.689905 -684.219437 -684.712954 -615.605803 -616.151849 -552.441085 -552.976462 -494.481048 -494.993193 -441.475980 -441.961397 -393.161760 -393.619019 -349.263833 -349.692316 -309.502365 -309.901966 -273.596740 -273.967747 -241.269274 -241.612283 -212.248203 -212.564057 -186.270055 -186.559788 -163.081500 -163.346286 -142.440731 -142.681850 -124.118479 -124.337280 -107.898676 -108.096548 -93.578846 -93.757196 -80.970253 -81.130481 -69.897843 -70.041330 -60.200024 -60.328114 -51.728305 -51.842295 -44.346828 -44.447960 -37.931813 -38.021266 -32.370942 -32.449830 -27.562697 -27.632063 -23.415673 -23.476489 -19.847877 -19.901044 -16.786024 -16.832372 -14.164846 -14.205136 -11.926417 -11.961343 -10.019501 -10.049694 -8.398929 -8.424959 -7.025015 -7.047396 -5.863000 -5.882192 -4.882536 -4.898949 -4.057211 -4.071211 -3.364106 -3.376016 -2.783396 -2.793502 -2.297980 -2.306534 -1.893153 -1.900374 -1.556304 -1.562385 -1.276649 -1.281756 -1.044992 -1.049271 -0.853511 -0.857086 -0.695569 -0.698548 -0.565550 -0.568025 -0.458709 -0.460759 -0.371046 -0.372739 -0.299195 -0.300586 -0.240321 -0.241459 -0.192040 -0.192964 -0.152341 -0.153086 -0.119527 -0.120119 -0.092155 -0.092616 -0.068991 -0.069342 -0.048977 -0.049230 -0.031189 -0.031358 -0.014827 -0.014922 0.000809 0.000777 0.016316 0.016337 0.032182 0.032244 0.048762 0.048849 0.066234 0.066326 0.084537 0.084605 0.103280 0.103282 0.121610 0.121491 0.138055 0.137740 0.150304 0.149695 0.154948 0.153914 0.147145 0.145518 0.120227 0.117796 0.065228 0.061730 -0.029660 -0.034548 -0.179718 -0.186388 -0.404401 -0.413319 -0.728106 -0.739821 -1.181005 -1.196148 -1.799901 -1.819194 -2.629104 -2.653355 -3.721279 -3.751378 -5.138223 -5.175131 -6.951526 -6.996261 -9.243051 -9.296666 -12.105177 -12.168731 -15.640724 -15.715247 -19.962507 -20.048957 -25.192432 -25.291647 -31.460088 -31.572731 -38.900777 -39.027277 -47.652939 -47.793430 -57.854974 -58.009219 -69.641455 -69.808743 -83.138889 -83.317663 -98.461601 -98.647527 -115.711180 -115.885690 -135.000228 -135.060352 -156.616875 -155.963662 -182.197352 -176.985549 -202.933728 -193.803871 -211.449719 -202.051604 22518.887563 23587.520302 20024.014139 23699.417220 21956.608199 19828.806590 19922.859896 19985.896276 20809.256796 19180.712565 20127.945148 24337.649638 23299.844034 19854.121018 24884.804359 14751.539231 8910.393230 15392.274020 19148.541655 18576.991189 20141.694485 14554.205494 23834.515946 22861.648938 25121.797824 25890.657983 21477.607920 27164.201307 18017.537058 19851.845011 17821.727584 4772.862723 20858.271253 26731.845328 25655.628312 24747.440652 11778.990136 22122.172976 23086.647448 21359.401421 11284.994618 21558.139343 16220.958846 25074.248249 19208.650268 11952.113132 25280.138277 24938.825419 25289.638926 18405.303452 23206.806239 19574.571870 10240.674873 15849.642908 20495.528378 22270.188551 23275.639250 25504.177447 23966.400724 26301.540219 22073.644899 25321.733769 25209.950969 21250.546683 20267.048646 23819.486566 24674.229011 22981.790098 23330.105490 24715.424949 25671.062568 22906.042536 23010.451507 22954.730699 23030.572642 20203.592859 13712.047311 24280.927160 25250.240383 24537.080116 21716.668472 23489.479188 21298.395226 17387.542194 23564.658922 26736.500148 15109.247048 16691.384205 23210.520128 23564.871836 21370.697413 24261.562413 23581.888682 20991.714025 19861.279390 23754.408042 22852.379325 11337.240380 19020.184277 24229.984188 21410.455458 21232.421347 23957.191197 15220.195413 24645.755487 16247.763984 21886.347059 23728.417919 7760.397945 17783.058265 24085.582229 22405.192318 23993.227750 9416.285694 24272.461733 15174.882116 21082.504310 13354.802041 14898.925556 8436.820254 9044.094461 25410.221877 24742.035451 12874.900609 24987.491551 11073.398767 21531.959580 15485.879690 16360.335643 18987.643362 17337.229384 16338.361149 23064.013737 22630.462527 21448.129226 21343.380285 14661.800095 19516.097359 17720.038914 10296.230953 20475.462050 20946.015759 15280.394671 25454.968918 22816.388576 22477.444928 25628.580142 21874.783594 19996.129805 18964.949539 15484.969261 20202.185379 11436.496682 16200.949540 23686.997659 21965.168623 23038.101655 23294.745399 19857.041007 20455.705237 16146.926509 17837.231390 9472.526564 11870.639515 11788.084556 22393.072987 20620.181576 23373.119164 17399.531983 13731.998328 16107.010322 18035.189037 14519.550344 6656.747071 7733.628655 3871.485806 19854.046503 21152.184621 23218.255149 20804.276495 22909.929511 19986.234521 16030.991453 17408.596724 13735.086451 2930.335553 3004.437355 19785.816387 21478.700911 22739.898512 19648.627326 13052.792641 6989.150907 6879.280160 10431.625055 6018.989108 6301.127180 5453.506886 20286.456963 20996.049491 21660.814201 21231.114572 21153.353505 9419.252321 17823.284953 8338.737627 10519.588886 4928.089962 4788.046722 21636.947516 20442.669693 22899.630681 19430.781576 10556.371747 10435.156880 11148.395450 8620.542202 1270.298550 2965.065322 2551.385845 20546.159851 21532.055918 21014.956132 21023.640799 14519.467044 8950.622247 6007.645064 5138.716084 4738.316044 9531.920688 6791.748323 20841.105274 21336.208012 19846.397689 16564.099406 13991.247664 9666.873393 7322.768251 5773.182554 6547.333244 2869.053131 7038.609484 22581.234722 20797.168178 21787.640720 15223.426421 15095.103543 14839.733589 7289.949942 7638.968425 6846.282886 7723.343227 6757.678529 22037.255581 22632.320171 17472.329291 19276.489395 12918.147552 13183.749268 17263.962821 14056.829765 9331.632486 9246.507028 7440.829789 20297.240843 18176.981823 21047.879014 17310.504821 15601.489066 15602.855676 11057.971303 4621.820310 13429.518685 6565.768535 6804.089562 23181.197279 20513.164430 21474.854926 20709.758070 19113.380274 13432.413813 12091.544643 11339.609749 9890.095234 7779.671775 11155.543105 20045.374632 20656.755880 17403.274431 18279.766789 21544.462163 7294.363532 14551.155594 5624.383063 7403.174847 4597.986401 6736.500280 20480.929067 19128.415762 16542.827533 17591.548569 13431.922273 17492.940654 13731.258873 14652.036657 6816.868173 7792.838709 5945.013836 22698.364555 20435.058491 20415.419665 19919.579110 17008.391060 10667.195673 9254.682300 12774.884760 9619.224154 10039.769600 5045.692425 21977.082043 20669.926163 13991.311657 13071.329082 16371.955892 10498.867177 11043.004570 7171.864864 9489.954001 8573.591453 3850.546035 21901.456268 18399.447528 20280.945264 17075.051156 17173.819250 9774.899504 11308.032256 13365.087819 7923.109123 9523.043259 7322.644846 23378.848045 17455.837721 15126.106828 20345.900239 16881.624758 14990.782961 11075.613055 9350.634473 11353.704675 7550.600423 2944.515487 20409.381472 13049.019946 19525.724354 12968.595581 15952.399603 15075.413705 8532.071354 8834.872844 7083.355992 7696.042367 5501.369912 21671.215759 20360.483451 17201.681969 15547.200579 16316.517661 10205.573732 9038.022280 8785.798306 7919.437431 6073.692449 7753.299640 20547.143768 16752.727738 16309.877085 17168.762701 15444.436153 10131.992114 13646.648547 7129.346894 8394.117983 9241.986847 4708.186357 21323.370650 20900.515269 18398.045930 16541.758603 14169.034401 12652.324269 9969.653126 14649.639887 7825.302104 5198.678641 8646.603705 21266.188990 19074.081641 15161.206857 15816.023437 18762.464724 14773.942361 11651.200414 13243.369654 11463.498138 8725.523690 3770.035523 20075.146038 20889.722198 18035.985912 15162.419068 12566.729476 12245.886542 11677.667169 10423.251330 16773.744093 7800.133176 5475.722578 20590.167756 20119.581611 19402.160949 13615.508607 14570.960425 10499.093097 12513.706801 8726.856493 9061.256122 6597.236132 4643.592401 19580.164765 17174.279745 18842.651002 16180.981097 10807.336039 9814.659826 7222.695942 9636.927615 5803.200591 9496.012713 2928.073205 21226.809085 19934.750255 18430.977081 18343.897473 15179.073201 11874.321030 7353.672779 10018.820943 11911.668061 12208.900505 4925.642554 18050.084388 18696.766446 15322.832051 13715.960216 13991.488071 13772.672633 15046.334253 10317.775377 7357.234202 6766.012669 5978.773192 19124.968991 19929.621236 15645.259512 13406.324277 17399.486301 9835.571391 12688.825390 10499.692741 8927.898009 7289.360048 5674.383283 15185.819922 19961.193242 16177.596057 15769.360670 11449.706177 12470.076017 9287.108311 8029.592340 6186.473467 6240.566810 5657.036682 21305.106391 21455.117722 16484.306512 10794.390476 14453.359642 11108.292845 8125.776868 12199.054583 5874.894229 9238.056267 2874.710629 20438.104632 18231.967492 17505.455161 8735.204888 9355.426143 7750.504514 6210.605827 10301.240547 7961.525897 9054.292652 3865.595079 18999.481922 14648.503020 12819.689674 17110.718681 11132.976617 12879.559812 12984.685753 4529.700283 6890.792648 6559.217456 4410.066919 21164.816613 20009.389814 17255.158169 16331.896531 12736.965214 10391.425869 8652.114160 14416.252002 9150.610559 2699.407017 3340.477926 18530.932461 17723.193011 18079.857317 15435.310532 7361.358289 14135.741831 14425.215050 7022.780032 10579.470462 3072.040622 3214.945256 17166.128408 17031.497301 19385.302385 14369.799418 12478.660997 11627.349048 15753.748234 11685.137229 9562.281724 4585.011197 3973.928070 15507.666714 13509.153621 16809.588063 16119.236819 10036.048862 12690.379214 11152.189307 11443.207396 8207.181071 4879.981410 4585.642927 20606.887979 16370.768665 15047.009131 16615.775569 17212.984440 13821.997980 13239.042770 11774.463058 7712.895514 4877.991015 4852.580571 16688.275699 18764.601880 17727.534572 16448.261331 14078.366481 13082.685941 10647.324931 8495.045563 11525.291863 3875.627844 6120.956805 20004.413374 17340.125295 17344.212007 16385.341537 16378.060664 14326.962046 8050.032267 9099.280656 6197.402404 4822.975476 4726.634735 19389.997639 16733.296697 17058.024167 14043.547917 12031.032032 7498.914272 8820.710442 7142.183779 3730.614638 3519.639282 5149.536450 17383.350976 14228.778457 17946.735578 12734.510533 11337.388437 8166.052075 6469.248277 5182.993992 6017.676755 3899.723493 3954.255988 17537.546726 16821.016317 16744.440667 13190.410606 8325.654234 8828.775131 10476.808334 6606.796131 5279.339860 5332.006411 3989.363345 18134.367206 16312.150953 14952.807535 6360.010656 12833.539011 9077.360512 10462.406842 6583.019099 6808.991580 4248.655510 4812.440569 17752.441536 15081.549382 14593.106002 15088.242855 10873.097160 10904.091898 9549.280985 14380.516622 6473.203980 4631.542417 3949.340065 15998.126928 16613.829029 14677.694385 14889.707980 12660.555585 10133.495884 9804.672189 9183.028282 6820.605883 4514.278877 6743.063639 16030.324163 14412.309601 16074.964600 14592.692040 11033.410232 11408.886107 7178.162354 4130.038313 6810.571720 5740.799649 3132.026425 15982.001947 18598.878215 16162.107757 13144.420262 13262.462606 7661.586203 5912.569775 5763.045951 8299.249429 5290.109673 1229.820363 18639.455741 17243.409298 16935.496149 14170.019485 12600.731217 10746.630363 14529.616281 5685.709323 5167.846981 5129.186082 5228.344611 16211.308363 16009.954289 14735.896592 14045.242470 12725.397629 12083.395392 9284.620033 9007.712337 5205.624532 5501.185780 2654.490711 14931.307530 15372.711316 15190.915316 15146.842680 13242.353712 12445.833796 9643.389576 7103.892872 8009.441559 4945.880038 4058.908843 15438.872627 15105.680393 14803.131617 11653.739568 8034.445152 11132.044313 12518.028105 7052.207254 7552.004740 4074.308674 4056.328310 15875.526117 15561.461806 12945.736758 14116.550506 10998.172533 14658.120985 10679.600543 8980.621778 3482.157948 6348.347986 4703.046190 15235.602084 14673.894741 13999.822654 15280.191006 13313.300502 8698.245286 8900.679887 9424.490755 6790.756623 5992.472739 3207.825199 16122.331232 16568.038866 10943.759465 13417.467506 11912.399338 11842.176350 11846.612587 8146.650723 10093.000549 6368.126381 4477.775211 16865.396184 16514.214966 16782.008749 16014.533141 8746.059212 9926.708586 11231.319120 6351.823385 6215.536065 7253.253467 3616.686517 16425.594810 15527.185723 14061.228900 14333.854583 9831.137610 12647.420133 8898.934479 9591.024422 7756.467672 6540.641583 2556.241805 16904.127536 12163.600203 17277.607090 16698.270841 13262.215090 9934.806355 10367.360932 7593.746972 8635.692678 8507.438847 3965.132880 16442.655041 15616.347230 16245.477849 15420.212753 10762.230032 12328.031068 11938.706840 6879.976417 12703.847536 2889.768261 3400.050662 17080.985266 14866.018207 11079.600454 16847.300140 12096.110090 14768.672255 9302.403321 7546.467893 5625.709740 5236.852584 2757.022722 17348.195603 17000.816416 14386.851522 14438.302292 13676.248114 10631.310215 10266.428386 9203.458939 6711.766449 6838.066445 4056.328020 13839.353919 17226.269728 12046.149222 16699.328950 12434.727508 10271.423355 10351.695770 4454.337857 7368.089935 7979.599836 2876.968708 15115.951080 17190.592399 15270.302389 16052.481652 12687.951300 12241.057190 8767.719680 8836.897410 5451.390053 5917.274436 2902.307857 14057.456118 13442.329998 15252.354416 14445.191487 12522.308694 10326.629112 8620.200998 8695.438549 4450.728583 7235.606929 3142.227567 16215.970529 12475.340612 12851.850621 11590.119868 13359.387382 11372.251586 12757.528663 9916.154355 6695.376522 5452.023897 4458.681167 13875.541799 14483.372229 14206.356172 13920.883025 10536.732581 8800.108556 11928.941609 7052.122139 9507.289126 2777.899641 8535.397074 14927.817534 13670.354151 14675.901517 13352.210020 10669.418233 12090.622597 9374.731599 10802.955132 8816.762539 5383.738395 3396.364535 13246.233324 15737.653881 14536.142002 12588.171309 13735.912888 13160.887874 12425.821610 9779.742752 8616.519072 9346.896764 4929.057228 15114.005409 13816.462075 15935.628106 13798.059658 14127.467975 11073.484559 8791.291124 7614.799719 9272.485381 8314.253814 3229.632405 13186.351625 12558.446903 12891.673282 12715.140479 11991.162687 11333.718528 8004.469653 11236.616382 8299.919110 7898.989876 4854.203239 12633.812817 13104.345329 13086.140556 12853.980857 11498.584234 9191.688123 11291.419835 6515.099374 8572.235722 7611.738254 5459.416182 14893.364203 12763.538201 12291.729557 13515.044277 13130.555767 11408.027047 10223.988334 8398.559275 5822.961019 3712.196804 5977.501298 13020.494343 14224.098736 13148.438096 13274.591693 12209.810864 10504.598040 9835.876944 6339.703450 4576.923866 4731.148844 4084.478156 14542.192961 13906.302289 13367.587050 13601.096025 10686.417141 11992.069691 8947.799477 6081.901644 5933.282451 4202.411624 6137.024265 15349.017396 13524.252846 12650.061864 12943.459810 11050.338094 5899.065681 9077.248776 11579.088833 8620.738938 7148.955852 3342.078500 13228.120968 15605.263802 11847.861568 11212.233634 7381.576694 10309.502195 10697.656657 8718.914481 6855.706661 1364.123189 4721.245837 15258.938878 13552.479287 13030.546178 14744.698115 7958.602014 10212.902322 4801.706541 8650.742971 8226.524029 7391.063649 3948.259544 14655.289487 15080.998598 10594.621150 14896.330839 7244.463752 10612.621501 9006.040658 9752.051574 6339.383492 5930.617205 7061.398594 14593.723813 13923.558469 14261.875173 14670.993312 14505.926982 9006.529697 9680.783165 8385.607044 6929.504426 5299.158416 4368.027073 15457.181653 14847.688738 12370.227585 14405.749989 10053.677992 9404.746012 6282.211776 11811.769039 5649.759074 7093.664623 2354.694515 14257.946485 12550.369352 9109.695763 9769.470047 9837.782950 11976.970468 9515.964625 8716.002808 2320.951102 3356.155742 7000.329759 14612.751454 15624.060512 15038.805098 10343.606825 12608.495260 8540.264744 7435.561871 6489.639193 5763.264259 3476.170090 4516.946980 14757.131255 13603.697007 12602.912871 8302.619376 10024.352425 8344.403780 11459.980369 7079.106368 5216.176231 6482.850567 1599.397715 14659.009430 13849.967078 13778.506729 12006.049169 10283.453342 5989.647438 6777.123028 7945.587087 6292.010493 5020.858286 8402.100556 11865.130273 9054.575904 11556.114280 12677.136852 12066.179908 7089.284425 12868.349056 5206.684632 5887.047644 4048.562991 3336.585951 14324.480857 12966.668799 14727.606627 12887.370850 10510.900299 13272.710325 10689.359139 4381.332756 6840.973737 6812.841617 5358.531415 12556.828374 12903.232027 14489.832748 10235.267329 11614.743760 10351.902602 11355.269894 14513.467255 6406.098250 5935.433104 4096.660984 19440.455344 23739.840270 21863.791595 19451.647581 12209.597293 19598.696884 16931.838181 21865.659283 21079.198424 14215.705060 12692.828989 8778.005626 3059.187570 7384.486027 20841.400357 9556.619695 25461.116136 19097.721995 7321.057834 24086.297973 12225.461103 6411.619243 16889.121298 7708.751861 9445.462123 5400.759872 3444.490413 10879.983513 10538.065715 15843.985204 13753.469332 7256.008677 5492.098220 10384.987191 11444.536167 12808.753567 16447.280004 6402.299299 6616.351968 4970.816694 3293.402698 3576.340115 16531.088228 14231.928917 13585.915587 13292.028931 18360.564699 15498.144373 15038.618037 17929.637342 6673.600017 17779.632133 10814.386500 8762.445076 5800.166101 4763.683917 15079.041979 23337.753344 15118.809084 13196.235181 19934.730593 15030.071475 15918.761698 11437.468607 12698.603084 7086.435888 9229.425269 11710.933193 4695.714874 1943.410679 14511.438120 21261.795820 13696.948894 22384.750564 17149.349285 22213.884627 22613.844526 12498.041144 9778.909414 10163.952147 8671.530736 7605.836969 14197.063805 3875.189466 24390.420022 7710.421726 14138.795889 18819.418978 6036.595843 19689.874133 18488.643787 21390.818355 12855.350840 9484.665230 8651.552727 7148.434954 6319.309685 2541.826259 10149.246547 12739.313537 10456.262053 19074.399664 14695.675426 16290.752210 10241.554171 8257.458064 5723.254310 7154.819811 13652.104083 4896.487861 5319.068871 3210.707384 17296.245634 20096.607217 11528.034714 7223.317202 13253.771001 10015.298045 9357.366209 7395.083100 6108.605377 11705.754382 13883.698424 7951.174485 4598.635142 4914.219384 9317.175430 13656.108413 13769.994814 8998.046536 12010.187838 9836.660677 13582.788596 11798.067771 12190.706435 7252.532923 7432.087128 5417.110414 4453.910525 3442.479811 8589.040543 10764.463238 20772.412503 17411.856624 6795.234738 7332.085632 7791.645637 19344.394597 8570.804564 11925.301815 17476.210600 11022.059520 6217.434302 4306.862041 12416.668903 5449.017934 11738.272465 21520.632951 11181.079204 16347.194536 6756.170608 12653.888839 7325.935216 10543.854089 11604.456419 21562.403398 3872.616417 5550.114380 7796.840171 4556.627424 1688.625810 12155.439419 6670.433267 5529.164219 11425.408274 17787.875451 17512.377840 10258.338914 7095.857297 6414.646540 4364.250428 3736.397976 4912.385080 8682.619434 5008.566886 5204.587778 8783.034354 5269.756949 8013.012140 14037.275930 6639.776547 13328.507978 8172.678327 4030.639254 4323.056957 5161.514066 3350.932404 6111.663662 3983.655291 4399.708562 4672.399340 6013.864722 9667.894928 4547.714290 3917.401904 3216.590833 5161.578031 3329.489082 2511.048798 4863.020652
</DataArray>
<DataArray type="Float64" Name="Velocity" NumberOfComponents="3" format="ascii">