<VTKFile type="PolyData">
<PolyData>
<Piece NumberOfPoints="1945" NumberOfVerts="1945" NumberOfLines="0" NumberOfStrips="0" NumberOfPolys="0">
<PointData>
<DataArray type="Float64" Name="Pressure" format="ascii">
 30304.103776 33761.508696 29002.448135 29593.915349 26186.568344 23762.541498 28860.837592 27738.228559 29482.421858 29028.438921 30835.846585 31583.322540 30821.721617 32203.150062 30012.454527 30617.358790 31150.222944 30602.798936 32169.558956 31648.103893 31454.651076 31620.133766 30825.410579 29342.970764 29726.820180 28976.026752 29274.043276 29669.622662 27962.008129 28744.752141 27543.722961 28996.574979 28186.753492 30883.325438 26039.818823 28120.323817 25849.033130 26515.985985 25588.064145 25543.344278 26082.883886 27272.916589 24961.613142 25771.253752 25910.768243 25980.636704 28204.479727 27793.892743 26217.610505 26843.225798 24240.958220 24980.686811 24944.352843 24414.078523 26730.121465 24254.577844 27317.080365 24499.148906 23288.419651 22410.647346 24901.363290 23583.595487 23457.100059 21190.352903 27140.620449 23419.351886 21241.750023 19224.608740 21843.191194 21832.709518 22767.610207 22021.462465 22238.363593 22577.121652 22865.347875 22876.461122 19539.365773 19581.259504 20775.353141 21009.592099 20120.450749 19427.836579 19761.321736 19601.962802 19541.282097 19537.184772 18891.028633 19457.884598 18750.159565 19752.256122 19098.214564 20392.927429 20262.934681 19710.339643 21046.336351 19898.335897 20692.797761 19876.012163 20948.693090 19366.067343 21208.472104 19764.676710 20791.881937 20209.925887 21526.008569 20742.970006 20681.578421 18385.151468 21161.122866 19080.599043 20801.488043 18204.514926 22109.965394 18856.003238 20916.182024 20316.986496 18655.094597 19106.901987 19199.131712 19453.512944 19780.780585 19607.036485 18770.383943 18560.533747 18101.964190 18163.501946 18033.591893 18575.514987 16348.685993 16991.247500 16054.831867 16651.586409 16832.350734 18351.401604 18291.065911 18896.682328 20643.514895 18795.178635 19826.579694 18698.918961 18314.489571 18564.763330 16508.523676 16751.910606 17758.742094 18420.146062 15797.178315 16316.798436 16128.756796 17734.634198 15987.917764 17119.703568 17249.026923 16479.124698 17931.231762 17025.972951 17545.148915 17355.294524 17696.607121 17404.638470 17773.257344 18256.579973 16919.388441 17837.774299 17056.375975 17208.934748 18119.155410 16678.962975 17186.736038 15835.923161 17671.216093 16466.149570 18254.346089 16342.716433 17502.307375 17591.419115 15161.857339 16540.539995 15352.038803 16017.495563 15285.286689 16237.456494 16414.989170 16719.817693 16686.265736 16700.077547 16943.769625 17204.432512 16152.828784 17576.106187 15250.395384 16222.144091 16222.735052 15998.891438 16195.698524 15855.067791 17317.397715 17657.128228 18378.656308 17896.124577 19363.486233 18169.198849 19203.927832 17458.442034 19478.024771 18542.477054 19798.670232 17819.387935 17928.641454 16662.350210 31579.085525 30125.637905 29412.805563 27571.234324 26317.136659 25164.156493 22892.071619 20536.367558 19740.843996 19456.913560 17873.495163 15610.394070 13195.414030 9187.880896 6606.476332 7617.544257 8543.000833 7961.703568 5243.974790 2383.271224 -200.601677 -2060.761223 -3223.534879 -3939.070998 -4358.061160 -4579.043110 -4666.323957 -4661.859589 -4593.250321 -4479.023730 -4332.009964 -4161.436098 -3974.199575 -3775.635657 -3569.981995 -3360.665346 -3150.484763 -2941.734358 -2736.290268 -2535.675782 -2341.112545 -2153.562416 -1973.762643 -1802.256023 -1639.417159 -1485.475852 -1340.540100 -1204.630650 -1077.799005 -960.746899 -858.861945 29571.613012 30538.329988 29989.627649 26981.046992 26994.107741 26006.791982 23591.653698 21167.968793 21340.855631 21504.920185 19111.012919 17466.858285 15488.388011 10461.255403 7194.537325 10092.957449 12164.044449 12802.548861 6996.759804 3675.903140 -76.314653 -1934.323029 -3132.100737 -3875.756707 -4314.874722 -4549.601439 -4646.090521 -4647.773844 -4583.313835 -4471.954277 -4326.986582 -4157.925701 -3971.845628 -3774.189586 -3569.262111 -3360.532630 -3150.828636 -2942.464240 -2737.330436 -2536.962100 -2342.590282 -2155.184683 -1975.489216 -1804.052390 -1641.253586 -1487.325703 -1342.372823 -1206.371802 -1079.086920 -959.471384 -841.822669 14949.587203 16229.921606 15355.602495 14018.108049 11149.002029 10248.925673 10251.607790 7982.285901 7865.787078 8187.957547 7074.422145 8236.832834 6117.216221 2548.329483 1544.649218 944.489474 526.105353 214.706281 -25.711700 -215.737156 -368.936115 -494.950147 -600.676961 -690.837731 -768.393255 -834.939258 -891.092930 -936.850611 -971.895637 -995.843700 -1008.422100 -1009.586248 -999.581278 -978.958828 -948.559650 -909.472178 -862.976047 -810.478103 -753.446991 -693.350968 -631.602363 -569.510964 -508.247664 -448.818916 -392.051814 -338.589037 -288.892033 -243.247985 -201.760412 -164.207399 -129.087410 15655.537419 16172.358271 15172.969928 13599.593894 11569.087312 10342.387251 9662.855282 8424.009543 7448.952089 6703.392113 5907.844851 4981.857331 3761.875038 2522.000150 1599.673091 982.725126 549.944792 230.303698 -14.864025 -207.900489 -363.176359 -490.665353 -597.413677 -688.233793 -766.164744 -832.877441 -889.059669 -934.769947 -969.742500 -993.631362 -1006.189837 -1007.388218 -997.477192 -977.006646 -946.810287 -907.966049 -861.741195 -809.529627 -752.787484 -692.971709 -631.485017 -569.629589 -508.570851 -449.311923 -392.678613 -339.314372 -289.684621 -244.092056 -202.720099 -165.814273 -134.746907 -786.018916 -752.460297 -758.817028 -726.804981 -689.651647 -671.680290 -604.680681 -602.457852 -533.533971 -533.735973 -470.110600 -470.680948 -413.122576 -413.715190 -361.988305 -362.547140 -316.251018 -316.767646 -275.481754 -275.955910 -239.266777 -239.699791 -207.208061 -207.601727 -178.925402 -179.281743 -154.058316 -154.379502 -132.267443 -132.555737 -113.235465 -113.493178 -96.667574 -96.897025 -82.291547 -82.495029 -69.857482 -70.037234 -59.137255 -59.295439 -49.923745 -50.062427 -42.029871 -42.151006 -35.287505 -35.392929 -29.546281 -29.637703 -24.672351 -24.751352 -20.547115 -20.615145 -17.065946 -17.124329 -14.136945 -14.186879 -11.679730 -11.722296 -9.624279 -9.660445 -7.909843 -7.940471 -6.483920 -6.509775 -5.301311 -5.323068 -4.323250 -4.341501 -3.516611 -3.531874 -2.853188 -2.865913 -2.309053 -2.319630 -1.863974 -1.872739 -1.500905 -1.508146 -1.205531 -1.211497 -0.965874 -0.970775 -0.771941 -0.775954 -0.615423 -0.618700 -0.489433 -0.492102 -0.388281 -0.390449 -0.307283 -0.309038 -0.242590 -0.244008 -0.191053 -0.192195 -0.150102 -0.151018 -0.117644 -0.118378 -0.091983 -0.092569 -0.071746 -0.072213 -0.055826 -0.056197 -0.043332 -0.043626 -0.033549 -0.033780 -0.025903 -0.026086 -0.019938 -0.020081 -0.015286 -0.015397 -0.011653 -0.011739 -0.008802 -0.008867 -0.006539 -0.006587 -0.004698 -0.004731 -0.003135 -0.003154 -0.001713 -0.001718 -0.000290 -0.000281 0.001290 0.001317 0.003215 0.003264 0.005725 0.005802 0.009127 0.009240 0.013827 0.013987 0.020354 0.020577 0.029398 0.029702 0.041846 0.042253 0.058815 0.059351 0.081689 0.082381 0.112135 0.113012 0.152101 0.153191 0.203778 0.205100 0.269503 0.271062 0.351575 0.353353 0.451964 0.453901 0.571854 0.573837 0.711001 0.712834 0.866832 0.868213 1.033256 1.033743 1.199125 1.198097 1.346315 1.342933 1.447396 1.440560 1.462884 1.451195 1.338119 1.319841 0.999820 0.972854 0.352440 0.314319 -0.725486 -0.777591 -2.384797 -2.454035 -4.808636 -4.898403 -8.214528 -8.328350 -12.855207 -12.996539 -19.017865 -19.189607 -27.021909 -27.224404 -37.217994 -37.438004 -50.007763 -50.151509 -65.993441 -65.495824 -87.131056 -82.274540 -105.564318 -96.540656 -113.416291 -103.877465 30828.954779 26761.627901 26423.364381 26933.302900 32177.891649 24174.409990 28199.156074 28002.345500 25631.405365 23702.248535 27231.924872 30995.887558 29488.253611 25588.333277 32350.273080 21565.420932 16678.677364 23960.130617 21470.797058 22299.127919 24129.498134 22288.337899 32153.939547 27173.498262 28871.447078 33040.468697 25750.519468 31787.344122 19266.992429 25137.008982 23291.664758 9777.290569 26947.774667 29724.758890 29469.832937 30541.353363 17484.884706 26065.636640 27082.361372 23123.487440 16251.300552 25800.096404 13586.295294 26981.253711 21310.972467 13941.167238 29283.425756 30801.243501 29700.516385 23481.510623 29274.500943 22588.628846 17408.478706 22744.032731 21778.101238 26604.109112 27198.939582 27993.166805 30849.418522 28049.612998 25698.380351 29462.038846 28670.439018 24328.673469 20444.082844 29353.468821 26334.192014 27225.536948 31176.497331 29180.458972 27969.532262 27295.513996 28216.092670 24563.799964 22735.332189 23277.504783 13727.968014 29345.634685 27521.067122 28390.731055 25153.591249 29129.563224 23942.164327 18679.557859 27912.744432 27660.343688 16972.241885 19600.995933 29631.764619 28953.523799 21497.784483 28977.947584 27197.450825 23324.098199 24172.243762 26705.854917 22357.762969 13956.737510 21734.741317 28714.611807 25434.651811 24118.301667 25844.427638 15630.280707 30428.811076 15775.712554 24547.380250 26055.053759 8370.053800 18479.043159 25730.899435 24878.362246 28277.976109 13013.853774 28969.892425 17869.305104 22799.819658 11067.255320 13318.475850 8876.033202 8947.543093 25777.726585 28226.767626 16506.053873 25379.486003 11016.619748 20616.924689 13916.434874 16378.580985 19480.897842 19942.605203 16359.255852 27107.099631 24143.144337 23549.048164 22180.391333 15509.257398 20639.150746 20027.101292 12643.308207 23717.520616 24064.274279 16404.981426 25788.709906 27005.624156 25684.145030 25156.824180 22773.461076 20050.801111 20499.674172 13929.740031 21498.204807 9515.063528 14407.607959 25921.557602 24178.726596 26682.721442 25592.936844 18125.537869 25067.465073 16909.267586 16453.675314 10184.396312 9518.502953 10177.000325 24478.308960 24015.770327 23494.337530 18133.904405 18289.715859 15223.980229 15211.503058 11385.285822 5710.353801 7750.166299 3244.811190 25218.879138 24129.995389 23543.130213 25944.917061 22227.866652 19438.530634 13504.360358 18604.680228 11669.013832 -3272.278500 4220.472277 21616.060816 19799.809334 23230.468643 16301.740076 13638.340382 6342.544207 7075.314763 11712.918455 4917.105264 4354.710864 6452.088095 20174.760984 22632.367242 21708.369500 23191.170256 18392.147504 9235.472706 15360.372584 8983.726605 8521.065817 6672.849400 6656.910765 23286.276024 20811.075784 21542.525285 22606.969243 11935.882102 13071.781209 9498.318779 7147.088798 4069.048826 1860.785141 4418.121561 21679.988253 21270.459936 19989.855870 20854.787893 13615.013619 8776.330507 5394.309258 3582.926384 4834.705120 2616.619835 3207.417920 21183.426180 21322.637349 15838.133759 15700.461536 15157.993834 8274.305663 7710.266155 5499.887822 5905.995478 3917.556337 2714.957743 22006.778638 21428.000550 22043.180054 12007.193420 16629.560294 16502.283350 5501.922397 8698.049229 6133.198854 5682.533268 3246.825487 16933.881154 21446.245453 19493.066679 17911.038652 11508.414332 12150.204819 13422.212748 12902.444147 10045.521969 4670.234315 3599.939467 22477.572925 20556.358699 19578.724040 17560.413582 13660.228293 14284.787092 9137.586464 5791.295927 13121.575682 6816.170318 4361.503267 20803.245346 20773.233345 19832.701129 19472.503842 19453.550200 10251.697787 9283.471026 9856.906749 12089.216242 8869.165981 2314.299581 18059.671057 18868.992083 18813.319342 15256.946768 19036.097108 7053.426513 10821.165210 6162.798060 6515.077347 4303.824720 3096.265749 17167.927585 17110.021210 16771.330971 17881.273695 10224.157392 16046.238196 8788.689395 12618.718839 4026.872513 4643.007577 6555.893218 19579.991360 19522.905100 20397.268114 17457.050042 17398.114273 11082.651156 6784.873208 8784.816744 6851.910379 8168.980706 1460.625351 17016.116612 18812.708852 15166.259409 12208.839860 15436.447148 8527.899147 9770.488656 6318.761538 6423.080900 8097.176345 3996.513983 20660.335011 18058.738705 17978.565217 17521.415965 17724.577935 10171.629620 11435.685079 9228.363946 6753.686504 7250.150228 3022.288577 23003.775609 19349.846416 14241.847448 17855.856565 16705.385592 13674.684406 10750.237787 8436.505379 9100.297721 7538.771135 2424.947471 22211.761911 12466.135361 19591.661883 13788.912929 16716.656825 11915.257627 7744.437288 9336.389039 5792.522300 5119.702580 2854.504732 22228.945306 22485.676212 18696.015196 15144.904186 14941.744489 10257.597511 9561.648120 9613.698450 6766.375085 4642.620354 4030.925346 22346.994540 18787.792999 17930.893982 17232.966033 15202.790291 10075.179826 10550.416172 6012.100834 4961.138275 3827.850367 2910.028455 20323.715999 22972.802163 18918.945945 16567.019894 14324.838642 13184.564154 11089.024680 12779.378284 3730.730284 3776.063238 3525.452273 19197.439087 21734.232634 13448.520326 17182.366688 18222.122391 12552.467913 12033.343197 11603.790551 8379.170880 5512.433626 2771.976676 19903.428321 19406.975574 19011.775282 15888.298254 11898.339326 8452.523793 10454.944361 10903.075964 14962.413531 3614.612686 5565.037098 19689.462868 20835.772192 20621.791030 11810.671327 14687.100103 8168.119523 7844.322317 5819.962907 7325.927290 5099.285618 2305.720748 19341.824515 17432.525563 19689.461048 15299.015912 6059.207764 9211.644685 6129.204884 5458.297866 4624.152051 7205.438180 2995.042251 19708.054145 18990.268023 18584.315495 17382.136917 14653.827478 9904.899319 4772.679566 6166.097451 8329.745354 2657.050512 2833.195573 17649.632069 19003.927966 15406.831346 13276.167608 11034.786999 12285.191475 13689.345867 6967.691486 4132.930779 2770.110954 4160.546545 21141.012861 18547.018246 16195.937278 13162.162549 13643.606332 8100.962159 10493.099195 7889.040793 8399.481484 4711.700756 4440.709667 18809.201485 18149.894406 15972.124242 18536.069420 11480.974040 11848.898925 7272.174827 8875.088471 6304.710099 4960.633908 6274.032753 20483.328286 20190.428225 15221.011894 10501.977349 11498.242918 10194.664128 8441.760856 12811.016150 5275.313276 7053.833227 1807.822499 20328.097101 16642.057869 19033.742139 7138.577747 7731.154428 8329.074777 8581.674469 7355.516500 4428.621612 6975.602075 5585.775083 22298.730732 14087.115000 14148.664616 17985.009519 9349.931763 12451.308652 12165.950806 5398.032502 5659.312060 7673.117315 2802.051756 19516.652761 21485.120509 16469.214400 15651.691129 12394.552362 11868.423722 5438.871127 14205.597894 7199.118504 3276.912051 3145.759431 19298.322799 21415.548391 16367.313489 13341.219071 10440.110320 16091.696478 13645.176938 5678.912334 8994.619320 2664.600833 2033.541721 17770.503395 18160.902028 18988.530898 13566.352697 13705.491893 11537.225965 15142.110342 8806.648641 10112.622856 4615.449020 2623.521832 17100.844427 15123.236214 19306.177266 17075.269196 11534.377544 12724.727839 9800.940296 11143.405150 8699.457208 4954.850480 2226.280947 18983.466084 16108.270057 15934.464670 14902.903399 17698.771889 10388.667697 12380.363608 10295.252647 6546.130554 3075.351989 3653.500000 18799.739790 18528.218483 19285.419556 18008.473779 15687.064404 13469.782287 9441.993273 6259.498388 9951.688956 5133.143715 3882.700485 18376.563673 18068.118617 17021.668646 17857.130155 17536.885087 13886.891548 7433.438024 9674.145520 4677.350810 6607.366030 4770.121732 20523.186056 16553.771288 18923.481024 17051.423847 11305.561421 6355.238769 7111.928184 6674.770546 4002.281677 3915.872559 5812.719297 18127.637100 16744.431943 19636.959474 14511.953234 10317.075172 10107.320372 7436.859352 4361.193559 4227.519550 3255.797628 5317.806925 18295.039568 18115.483408 17374.849038 11778.013380 11348.376453 8582.253455 10430.226137 5012.739793 5467.898830 5258.045556 6528.865619 18471.610688 16340.050294 16942.182485 7348.832673 15913.080296 9173.906775 10462.178064 7260.908519 8530.632860 2966.254008 4279.906357 17775.478115 18481.992623 17773.828667 17474.790663 12568.408698 12637.845991 12463.293330 16364.166568 5205.954092 5109.704068 2796.348448 16223.057304 17929.931995 17554.184670 16391.469915 13598.365943 11902.531661 10784.745538 11213.921813 6048.293007 3093.569080 4807.343856 17286.590705 15920.626769 18144.363757 15783.919917 12989.072927 11787.709699 8906.339153 5301.576059 6825.809433 3897.502193 2834.242789 19392.082005 17345.294135 16929.436952 14352.298083 14817.205077 11114.867783 4454.875230 5510.487257 8648.320762 4668.659087 2170.951694 16339.195837 17947.131373 16467.117281 16172.975954 12300.475426 14044.261137 16305.988464 6852.361827 4078.531301 4895.785360 4087.643290 19403.240454 16895.479577 18022.766872 14953.139864 15435.030478 12946.072221 8385.635192 10469.817242 4240.132204 4081.820845 4781.158109 18973.324677 16418.127123 17459.142199 16268.976124 13916.852020 16015.335122 12191.747377 7157.047752 8283.254713 6815.600662 9762.451888 18543.931129 18505.867911 16863.049049 13903.843456 9149.748946 12994.396787 12181.994759 5882.190308 7319.849427 6159.275803 5619.995639 18201.591647 19194.281418 15960.714032 17794.842950 12091.828534 14960.189417 9853.291035 8989.400152 4490.384636 4764.555209 5495.883228 17894.411251 17344.510012 15992.986611 16156.664736 13005.545656 8592.298195 7397.890324 7255.059108 5737.236745 5433.568090 8280.647269 19694.514010 18718.043991 13327.528500 12996.961925 13310.578721 10581.088324 12977.082064 5647.034589 9296.619299 5068.350751 1513.311281 17199.505955 19229.433694 20368.607694 17158.414236 11140.651724 11139.614567 10561.048407 6533.802418 6287.325370 8422.318213 6652.816810 20125.530791 18482.506633 15002.943686 15622.550528 12271.701545 13876.654087 7281.644988 11861.536687 8051.182959 7712.201770 4910.680352 17989.272584 16380.296286 17788.166901 16011.537947 13953.978339 11119.784811 10464.514265 7676.472252 9293.861061 9628.250919 4815.854073 16289.642220 16816.170355 16442.264059 15183.930556 10380.067365 14167.103336 12088.544540 7023.038248 11706.477627 4249.534421 4422.899152 18571.314275 16233.046853 12240.432404 18751.260009 15434.557793 15616.803465 10278.635640 7092.428867 6958.872577 2550.997650 1867.133773 17532.590404 18394.799151 16810.167989 16239.540777 14002.483609 10966.824437 10075.441966 8850.708860 6654.863817 6639.339174 4166.088297 15204.047964 17553.533230 13842.648175 15607.325244 12725.224616 9437.878086 13197.300308 6501.279159 8223.516834 9789.842345 2066.178128 17732.382928 18092.352475 14847.836381 17753.235205 13194.308650 12649.678735 10248.269520 8085.842429 8415.248687 5729.598303 2893.600798 16775.744527 16764.728919 14031.692141 15372.521077 14540.202342 12204.595702 8347.169965 8995.613171 3854.918326 6330.399235 6586.914730 16558.071792 15506.208923 18334.024675 13411.167545 15407.400873 13103.036957 15689.068643 11147.963280 8549.480015 7919.637937 3088.021085 15601.835477 15135.360138 16045.222991 18800.885252 13621.666740 10277.156629 11876.104646 7480.259062 9789.549065 4024.451713 10099.725707 17797.586710 16477.683199 17299.854341 15990.690654 10962.226371 14451.588865 9945.560582 10982.564744 10580.819464 2892.859145 3587.776309 16869.166560 17401.689414 17101.410206 13831.593567 14783.040369 15977.452772 13120.838331 10606.084239 9894.438763 9935.305070 8011.826080 16501.564574 16471.140697 17355.222998 14797.949751 15504.858497 12045.393419 10580.054322 8522.849892 9936.086774 8176.333693 3084.327874 16207.750608 13934.916294 15401.779513 15415.124969 14429.676383 12986.872758 10151.437430 12835.000499 6624.908683 7377.944427 4015.618082 15537.921464 14121.267877 15895.217112 16962.983765 15192.412835 10318.597094 11847.939920 8493.306898 10732.721743 7335.763569 6835.137412 15906.269346 14981.617495 12939.162991 14724.617100 16045.825805 12855.660981 11623.456882 10714.535412 3187.531595 5128.293269 9745.413438 15144.414548 13118.360105 14527.570612 14696.131524 13731.336888 11952.868008 11563.700640 8822.627622 5897.969630 7308.863830 6155.657645 16181.982729 15128.089599 14046.611468 14514.410138 12403.115173 12450.863629 10615.264954 5107.424351 9262.466207 6555.863987 5507.147452 16468.441566 13701.393332 13778.210208 13162.813799 12896.226566 10125.627127 10959.973135 12330.472118 8898.114048 8801.912795 1883.970051 14827.283701 17164.032922 12201.705383 13696.172223 10571.473480 12928.487726 11555.862978 9657.112081 7546.079336 2373.235101 3583.468375 16409.787614 15238.345481 14409.665359 15091.795712 10500.379457 11223.670192 3800.092607 11447.979312 9303.520533 7458.622377 4045.372126 16733.599274 17821.453568 12588.862697 17258.077067 11342.525500 12910.367850 9113.841562 12723.951306 9420.079559 6000.255384 8069.236695 17337.389644 17042.692990 16685.865633 15462.219383 15779.858985 12378.883193 13235.214439 12655.693050 10236.676952 1998.367964 6124.314580 17341.127647 16770.766261 13059.188965 14760.990080 14640.755336 13249.043164 8838.337203 12685.350577 8950.339738 9964.353484 2291.070039 15919.429302 14009.625617 12243.711642 12522.970640 13300.788683 14299.843832 11567.692413 10663.930603 1552.312648 5827.719118 8095.724710 16721.362444 17416.981244 16572.889914 12462.868386 13948.067405 10592.984144 9540.297507 7869.700673 7865.016539 5701.850915 6189.539482 15857.770508 15711.122521 15863.389793 11692.008101 12212.300329 11328.011121 14005.773581 7782.261497 8734.301122 7817.709266 3936.254143 16754.902604 17284.305264 17355.734606 15859.369132 13300.821457 8993.322013 8974.422744 8589.558433 8465.158603 4321.918195 10445.374864 15513.217789 10855.160506 14624.735087 15819.155990 16191.769546 9171.312223 16381.438632 7816.974809 9778.568944 4629.268870 3734.105854 15787.765399 17339.413281 17649.790188 16171.259083 13629.473244 15755.305797 13517.863211 6646.731259 7922.451492 8706.091089 7705.499720 15307.860786 14750.411173 16310.240522 13152.001523 14382.079792 10911.430688 14123.467401 15730.694575 7326.995512 7697.845780 3683.273077 25637.183777 29625.693322 28308.308393 25276.380586 19896.461899 25932.807475 22882.406510 30647.047034 30302.412683 22519.312813 20929.759514 14888.897027 14688.657118 6710.521612 26458.963258 18582.483527 28715.445186 24935.925629 16483.472955 29491.896449 17971.628997 16681.150973 25031.948117 13693.987778 18289.968979 15429.487078 7562.496943 20740.719860 14939.005731 19910.530978 21271.418541 14414.491686 13985.033067 12933.208612 17086.647059 15700.527147 22066.710615 15858.787884 9314.865909 8739.525171 11266.319813 8673.894999 19097.324709 14219.165925 17170.656823 20562.446754 19511.416213 18237.288683 18345.920733 20966.888029 11790.504342 20945.343809 18010.433685 14187.611341 12084.947910 9020.451857 19193.090784 27441.484441 17808.064895 16631.002626 24634.684611 20594.049769 19855.228196 15518.795008 17847.572580 9641.185844 16090.313474 12534.876961 8711.043001 13280.187526 15673.452962 24348.891382 17339.021093 25641.751874 22635.000446 24182.651691 25697.918978 16345.982692 11432.413318 15070.357845 10815.405944 12767.310998 20005.747957 9369.758837 28781.547081 6648.119508 14506.815167 17589.985691 8272.152048 22790.855658 20483.063568 23008.072696 12562.973348 12332.846397 12054.347194 9663.529297 8968.023641 3764.403648 12631.841499 11945.660171 13437.637433 23525.539865 16050.188037 19820.794737 8825.237947 9393.528463 5422.491073 10337.805583 14149.801237 9614.394093 6802.195772 5510.746211 21254.633194 20065.052653 11702.405872 8464.080589 13325.250275 9116.973794 9411.507362 8784.127489 5218.534973 15826.300811 10957.451556 9701.316462 7009.142170 10205.739456 6338.111633 15668.485264 12998.157743 10478.629632 14962.167617 8682.743891 14287.066356 12822.394547 16586.501184 6632.190823 7202.241047 2201.108136 4917.256921 8137.864899 8539.402172 10658.791846 21297.654334 16929.232034 5324.242141 9100.348040 9781.136770 18543.685893 8859.427415 14463.317249 20826.940567 12311.830143 6000.287304 7602.168276 11353.238862 5969.396792 14587.347992 22506.863203 9874.374920 14412.912095 6554.649849 16163.778137 9137.319565 11805.612120 9491.535198 20934.335149 4846.273581 6698.292598 6027.419460 5637.074289 1837.738910 14392.474805 7717.810647 5153.244437 12519.698905 18139.323869 16546.645784 8536.316350 7393.225256 7580.354769 4992.832283 9442.862142 2646.834065 8272.759141 7859.262599 5534.741975 8809.857569 3071.717146 8207.139329 13722.921337 10119.754315 13014.758157 9341.877106 2927.833792 2769.365827 7392.594702 5585.402150 3981.053201 4337.049840 4671.707693 3378.519662 2676.184840 7524.130079 3180.564063 2170.614222 3859.437130 -3.888396 -3237.481835 2458.519640 7199.610262
</DataArray>
<DataArray type="Float64" Name="Velocity" NumberOfComponents="3" format="ascii">