<VTKFile type="PolyData">
<PolyData>
<Piece NumberOfPoints="1945" NumberOfVerts="1945" NumberOfLines="0" NumberOfStrips="0" NumberOfPolys="0">
<PointData>
<DataArray type="Float64" Name="Pressure" format="ascii">
 27170.265041 25189.971057 27909.794654 26573.841331 27133.850740 27916.859244 25786.629600 25667.008832 22915.582328 22892.638697 23805.275459 25860.409508 23040.698695 22505.108165 26367.897817 26741.088339 25819.033598 27395.193786 24938.859020 26083.876887 24728.978430 25644.802041 26158.557299 25538.182221 25427.966207 23700.777439 28301.527370 26572.440064 23245.704580 22599.667719 27590.776469 26236.958789 26012.024106 22789.001981 27583.174093 26083.024834 23295.591010 21477.567754 25098.394970 25962.201853 24291.546593 24249.036982 24550.139083 23922.532101 25165.931219 25771.014302 22902.360631 22732.201465 23127.944328 22578.557035 20732.911768 20925.859625 23962.960812 24811.172775 22884.572477 21516.511060 23497.810329 22063.705742 23280.409655 23845.357012 23879.044313 23213.932131 24501.388761 24075.784474 23606.360337 22748.102372 24805.547250 23539.478162 21812.383908 21567.326846 22357.705857 21922.862427 22096.748942 22676.314921 22921.233016 22329.799664 22908.550734 21852.302744 19521.723165 19320.195651 21204.461780 21205.474979 19392.677885 19087.582479 18883.839341 19555.603800 16473.851069 16820.061809 18876.956026 19729.730276 17004.329858 17470.878491 19640.344474 19858.872810 18233.708726 18699.493804 19112.925982 20156.637701 17109.879106 18420.291832 17270.460838 19079.635350 17186.141800 18759.924526 16743.009383 17553.555893 17716.194063 17935.412635 17827.082502 18600.220067 15949.800508 17034.347027 16042.877695 18813.385873 14511.311507 17497.989521 16142.525956 17908.705989 18452.272378 17875.947986 19173.754722 19748.518224 16347.453099 18263.978934 16503.574822 19489.365152 17039.222200 19588.556635 17548.137462 18699.903780 17491.262131 18279.820932 17287.102278 17495.798671 18472.585660 19091.264318 18200.266963 19292.090116 16171.718815 17759.436641 16134.066653 18002.699684 13862.083106 16289.848087 15341.675409 17304.869329 16647.528592 16322.716479 19804.016851 18141.502849 19284.022786 17170.542364 20070.682083 18507.351389 19315.798618 16989.527099 16731.010617 16897.391527 15256.782680 17512.702150 17098.882845 17952.756050 15864.464200 14886.341986 15053.347279 14829.105112 15568.740583 15552.365919 17559.246067 17290.206778 16754.057539 15418.533529 16678.155775 15421.632731 15569.159761 15658.446221 15131.986753 15288.830085 13670.005437 14644.767507 13794.007577 14301.228928 14765.611211 14377.891367 15621.993489 14691.069656 15136.932977 14698.091727 14892.979340 14063.849181 13476.918016 13718.471284 12414.499162 12871.521265 12893.505650 13661.857140 12018.571251 13705.510144 11465.864615 12769.893239 11056.492551 12858.054206 10780.055890 12750.587197 13014.651373 13497.311514 13466.501534 11991.305055 12449.937732 10843.900955 26088.320425 27380.826677 23843.346581 21369.510445 20063.434565 20155.788866 19439.269493 17541.391276 16351.468835 14703.440903 13072.292063 12187.447934 11565.589267 10409.375172 9567.760419 8707.671843 7486.170076 6698.596814 6548.689217 5908.343814 4256.701388 2309.818868 1174.075850 754.730989 393.111688 -94.314226 -642.288309 -1196.743702 -1711.172733 -2152.286715 -2502.264453 -2756.833349 -2921.340909 -3006.685970 -3026.069113 -2992.809047 -2919.097276 -2815.436312 -2690.511560 -2551.302777 -2403.304101 -2250.773827 -2096.972049 -1944.367630 -1794.809413 -1649.663715 -1509.924739 -1376.315542 -1249.460298 -1130.572491 -1025.741263 25076.745948 26316.513710 23782.263989 21672.519539 19127.922115 20048.203440 18784.791040 16764.710807 16958.448410 14873.200467 12108.634477 11411.775497 11651.714650 9227.180561 9525.266872 8193.317990 6498.123098 5518.357648 6423.635493 5572.121249 2379.664030 -388.894951 127.771703 752.647144 372.843249 -108.457189 -647.030536 -1192.305061 -1699.521402 -2136.183988 -2484.397421 -2739.296822 -2905.482900 -2993.186929 -3015.118030 -2984.286402 -2912.722600 -2810.869873 -2687.415584 -2549.372925 -2402.281699 -2250.447038 -2097.171529 -1944.960044 -1795.690537 -1650.751242 -1511.146314 -1377.562827 -1250.328862 -1128.818993 -1007.400531 9567.364093 10243.222583 10706.666570 8004.497874 6156.266754 3053.977120 2495.775747 1759.183369 -715.518321 -19.925577 1237.507608 1374.672516 1399.649268 1353.328911 1256.730959 1123.479794 964.507766 789.285278 606.074036 421.907861 242.556349 72.542143 -84.785520 -227.136711 -353.142078 -462.201717 -554.331199 -630.013121 -690.061687 -735.506409 -767.498714 -787.242501 -795.946993 -794.798284 -784.944870 -767.492324 -743.502828 -713.996236 -679.950482 -642.300191 -601.933211 -559.685383 -516.334237 -472.592414 -429.101622 -386.427706 -345.056772 -305.389303 -267.711831 -232.022970 -196.938363 9697.712953 9804.963390 9268.959304 7389.691478 5899.406155 4490.501374 3242.338333 2329.507190 1559.248555 1233.630286 1276.873292 1367.165673 1387.185594 1342.988630 1248.888751 1117.819610 960.746649 787.185110 605.402594 422.427680 244.030196 74.742581 -82.067870 -224.087430 -349.919493 -458.935370 -551.122037 -626.935284 -687.165653 -732.823085 -765.043945 -785.021454 -793.957976 -793.035731 -783.401401 -766.159956 -742.373482 -713.061765 -679.202418 -641.729393 -601.529537 -559.437478 -516.229464 -472.616953 -429.240738 -386.666382 -345.381982 -305.801905 -268.297212 -233.373470 -202.820796 -950.021557 -915.013557 -920.663433 -887.039669 -846.213107 -827.105707 -753.706315 -751.254400 -674.885438 -675.021101 -603.507641 -604.050573 -538.374004 -538.955889 -479.016152 -479.575831 -425.080843 -425.607734 -376.228463 -376.720752 -332.120685 -332.578346 -292.421864 -292.845458 -256.802157 -257.192578 -224.940407 -225.298799 -196.526535 -196.854234 -171.263441 -171.561929 -148.868447 -149.139309 -129.074342 -129.319235 -111.630066 -111.850683 -96.301084 -96.499131 -82.869487 -83.046655 -71.133857 -71.291806 -60.908945 -61.049285 -52.025180 -52.149461 -44.328056 -44.437756 -37.677422 -37.773938 -31.946689 -32.031336 -27.022001 -27.096005 -22.801369 -22.865867 -19.193796 -19.249836 -16.118406 -16.166949 -13.503591 -13.545515 -11.286183 -11.322283 -9.410662 -9.441655 -7.828403 -7.854934 -6.496965 -6.519612 -5.379436 -5.398712 -4.443818 -4.460179 -3.662464 -3.676312 -3.011566 -3.023255 -2.470687 -2.480526 -2.022335 -2.030595 -1.651592 -1.658507 -1.345769 -1.351543 -1.094108 -1.098916 -0.887512 -0.891505 -0.718316 -0.721624 -0.580075 -0.582809 -0.467390 -0.469643 -0.375747 -0.377598 -0.301380 -0.302898 -0.241162 -0.242402 -0.192494 -0.193504 -0.153224 -0.154044 -0.121571 -0.122234 -0.096061 -0.096593 -0.075471 -0.075895 -0.058782 -0.059115 -0.045140 -0.045396 -0.033816 -0.034006 -0.024178 -0.024309 -0.015661 -0.015739 -0.007743 -0.007770 0.000076 0.000098 0.008293 0.008365 0.017419 0.017543 0.027985 0.028164 0.040548 0.040785 0.055685 0.055980 0.073966 0.074317 0.095923 0.096322 0.121980 0.122411 0.152354 0.152789 0.186919 0.187311 0.225002 0.225283 0.265127 0.265196 0.304668 0.304382 0.339406 0.338575 0.362986 0.361355 0.366240 0.363479 0.336386 0.332075 0.256083 0.249699 0.102350 0.093253 -0.154642 -0.167221 -0.552895 -0.569864 -1.139982 -1.162391 -1.974480 -2.003524 -3.127375 -3.164385 -4.683358 -4.729785 -6.741921 -6.799309 -9.418138 -9.488084 -12.843017 -12.927121 -17.163287 -17.263089 -22.540495 -22.657397 -29.149288 -29.284462 -37.174772 -37.329053 -46.808879 -46.982612 -58.245800 -58.438410 -71.677029 -71.884979 -87.289518 -87.494446 -105.288387 -105.384610 -126.063970 -125.433968 -151.413894 -146.069719 -172.394211 -162.863947 -181.101722 -171.211193 24466.159232 25714.603218 22163.112444 26654.162178 22676.977133 20960.039917 22337.062203 22060.507859 23426.975062 18015.474774 24281.384439 22497.237549 25465.477230 22166.242020 25334.823382 15087.092923 11208.175872 16557.341807 19397.568921 18277.695024 21199.904966 17065.527129 25629.983662 22557.051693 26211.550801 25180.250087 22645.938619 25984.579702 17009.887080 21599.460182 17722.037489 5164.489732 20979.215559 26538.089344 24739.977281 28479.430226 12859.707662 23445.158886 23713.594697 21443.417910 12807.863844 23205.171586 13637.133293 24714.027769 19789.711312 11277.597972 25469.537069 25222.651939 27839.780580 20104.606257 23602.228883 21362.151672 10517.165600 17934.519692 19091.762145 23693.433839 24337.264958 25294.915031 26546.075231 28646.422427 19994.629156 29256.640361 24504.728951 24113.392459 22691.118773 28099.323688 26590.222322 25006.131547 26024.200348 24964.407119 26409.958961 25740.535472 25350.221266 22959.994186 20959.802606 20662.895362 12442.669176 23704.233130 24517.211678 20474.048686 21923.852827 25540.761753 21723.122157 18883.205070 26259.501805 25792.905342 16994.895995 15707.020539 26226.752914 23628.019753 19448.224969 23873.046683 24541.149888 18309.891523 22814.566606 25810.214800 25810.073322 11641.764283 20782.547457 22913.990714 24325.485070 22928.096591 28538.113244 12945.448514 22571.275321 16458.656439 23168.170028 22860.566476 6727.729710 16955.096109 23667.163522 23411.791131 24593.155841 11864.884189 24495.124908 17530.962313 22401.913451 12014.743109 16108.978109 9619.610705 8456.084272 25093.538726 23369.527733 13375.104543 26133.289865 11091.662049 19958.410395 13646.692270 16615.203158 18641.026484 17081.537913 17919.957447 24212.509902 23004.364533 22522.323887 22005.219312 15733.773475 21453.878946 17910.941178 10886.190231 21586.563281 22772.094873 15339.448876 22939.684817 22874.296192 23282.587077 21872.541343 23431.651759 21137.675246 17544.514362 14140.341095 21408.545496 11153.871348 15734.296072 21820.438990 22575.963963 23793.352274 26423.347097 20519.020307 21937.628494 17025.581883 16823.066671 9106.324459 9649.301011 11616.149234 21943.598882 22700.309124 22881.266586 17579.840379 14423.474287 15751.453186 18651.368984 13744.299756 7888.672231 8925.548312 2636.394387 21338.327718 23156.950706 23235.497920 22105.732479 23372.743068 20237.317299 15744.538189 20396.105440 13458.564125 5462.921211 1954.025145 22241.130682 21311.784269 23120.915159 17363.823482 13734.250939 7107.325177 6759.124144 10169.533544 6610.175726 3466.485001 4695.189571 22010.726642 19597.579308 21791.025752 22269.200598 20222.003516 8446.906269 14856.093208 9500.520197 10789.782408 8820.572419 5157.537289 23350.193076 22051.293089 21872.817287 20903.816027 8834.321516 10896.857155 10342.502007 9909.490536 4769.371448 2841.734521 2287.139193 22791.450783 23016.144247 21721.629107 19846.074460 14295.944802 9970.348880 6750.107516 5462.775009 3485.508019 2969.783591 7866.041087 19963.681454 21014.552602 19146.424663 17452.530905 13309.044486 10787.507389 7459.029989 7290.779418 8507.963452 8645.625365 2953.387339 22952.301296 22376.309115 20581.578322 13462.027361 15786.783928 16277.487486 7382.489500 7307.956055 6528.466240 8720.370008 4260.060912 18338.749641 21279.196570 17625.694489 18631.534783 11834.015003 13306.288367 17553.806666 14527.373818 9386.320684 5543.578005 4399.724231 18784.408046 19942.507189 18876.800295 18149.718679 14131.997778 14048.018025 10929.388951 5655.305491 13696.361583 5769.583692 4236.805523 22387.489084 18573.208689 20228.733716 21347.296934 16699.590890 12696.442448 11363.483959 10589.710696 10187.832016 7693.543962 3415.155681 18020.965546 18958.618509 16380.620224 15281.551848 18718.552792 7389.821704 14524.389210 6078.108309 8227.916525 3064.968060 2189.040511 19097.129364 17978.007580 16970.016025 16107.035660 12823.341714 17144.978714 13179.666424 13380.819629 8469.762856 7372.997750 6372.568231 18475.626918 18089.127637 20469.295370 19396.296641 17217.756203 12113.105509 8734.463156 11684.592014 8553.287610 10062.345936 3665.362905 18461.207598 21017.272443 13666.907734 11161.325043 13876.139282 9858.020545 7291.777000 6720.779498 9359.712628 5580.027897 6304.433471 18159.070726 18272.378053 17973.356816 16553.659741 17592.158134 9197.072833 11484.483868 10398.539237 5912.821128 8890.446907 4774.261748 22485.088718 17031.983299 13095.871835 19709.510539 14187.670926 15117.829406 9656.720920 6210.890636 7991.685579 7023.155167 4753.925803 18627.651120 13452.424610 18235.476828 10300.328637 16047.474386 13734.437702 7882.671772 7522.617072 4272.192746 5618.017805 3349.036490 22171.134683 18359.685844 16459.753789 15727.993901 15897.861078 8841.148995 7080.569665 8650.366901 5571.813966 3193.804945 3215.203319 18776.363273 16413.433225 17314.431450 16370.985327 16309.121583 7689.222635 11167.463471 4387.527489 3583.218158 6482.237452 4705.748417 20853.052111 19231.283704 17843.745586 16630.521540 11929.614591 11341.383353 9634.251052 13078.114107 5808.974657 3160.120542 3886.471704 18656.749456 16703.077253 13958.567458 12404.944750 15689.822427 13827.084194 11002.891363 11881.217855 7507.975582 5700.576011 2881.138124 20177.059075 17754.344545 18633.790187 14455.849277 10389.197056 9930.321979 9778.202879 8257.121516 15977.756764 3317.523472 4990.713688 19126.088611 16829.592993 19153.263342 11215.303648 12389.109336 7208.400215 7842.830250 3738.208632 6370.997994 4682.701203 3352.527172 17176.578132 15757.050776 17430.937050 13246.905678 7304.546660 8684.051383 6966.018045 7349.574482 4374.461437 8493.880135 4178.515408 17704.318753 18161.611529 16141.951618 15864.292239 15785.399186 10687.667514 2607.638511 8147.507691 8618.986757 3940.134246 5027.144803 18111.108107 17624.696990 14601.160688 12694.353312 11239.450592 10299.326159 13381.260577 3895.903799 4497.211551 3362.654167 3366.155014 18057.463197 18017.569335 14291.348096 12126.099845 13847.500327 9828.534531 11034.899090 8020.121253 7064.369190 5492.986875 6542.003784 13483.919528 18128.984450 14366.010461 15386.723076 11031.628509 9368.762493 6454.657917 7849.410260 6420.562999 4097.347733 6049.792732 18024.139475 20096.960898 15411.751248 7387.585902 12493.162870 10558.746686 7297.995916 13487.637286 5569.908273 8084.644983 6290.841224 20604.981820 16021.864174 16542.736362 5350.749581 8861.681100 4901.482117 5006.409629 9280.036137 2831.061764 9724.558859 2813.346448 17096.493319 12430.540020 10778.801015 15619.982325 11452.413610 13403.135513 9974.187712 4468.989755 8609.147064 7185.204023 5320.149024 18853.922936 18155.914958 16502.909926 14311.750712 10300.499815 10501.357468 4880.115886 14466.033307 7842.961984 4443.693840 2803.403501 17921.751796 15998.481892 16303.839750 14790.099750 7061.827110 12516.723847 13629.171233 5780.349530 11628.401581 5926.284926 4988.611410 13700.308495 15546.275288 18175.765240 13476.363009 11635.331739 11655.641853 13767.791847 10396.390110 10231.925210 4088.343933 3823.393349 14073.313946 11624.563150 15999.192788 17332.796557 10588.091367 12832.178776 9404.960305 12235.267449 7725.947631 5971.343271 5504.006241 18846.571310 17946.644258 13045.210255 13933.293737 16770.812030 11792.798195 12937.642049 11152.684627 7109.950961 5961.652648 3032.765463 19523.859443 17937.449735 17478.987989 16665.914654 14621.522814 15435.337312 10401.658629 7191.620102 10734.494286 4697.885057 4908.999518 18726.418468 17273.276324 14667.353070 16650.608345 15762.387334 14147.661888 8762.921338 9989.364558 4847.824326 6884.792126 1796.707074 18026.142281 18250.691127 19309.674503 12683.927799 13018.653166 8137.825664 11013.688430 6690.042475 3761.665963 4644.837478 3846.068182 18750.512726 19668.475099 18622.866938 11814.414575 13233.614212 9978.976933 8127.303318 5025.969743 5735.054219 3987.104325 4177.142607 17611.341386 16926.443637 16223.680347 12070.555410 8699.764823 10357.924875 11287.627355 6106.329439 6252.730712 5197.073221 2912.932738 16983.940812 16561.585122 14392.353412 7016.619959 15166.300274 9181.398265 11167.650483 7145.813806 9009.448227 4107.098803 5107.602563 18387.877434 15816.594040 17810.749940 15806.776576 12313.323824 13912.808865 11142.803606 17291.791897 6598.005332 4892.697569 2869.482701 20466.352771 16651.986837 17531.037817 13837.300865 13765.226656 11807.448482 11048.029100 10173.071414 7014.402250 5297.266212 6992.620756 17269.247537 14150.952777 16101.712056 17556.188463 13065.556735 13344.984416 9889.270526 4480.119897 7204.516934 6590.351452 2176.436996 17629.690685 19991.052689 16167.399721 13062.858842 13839.842270 9772.310350 5510.266642 7169.018146 8138.557535 7214.985219 4487.765459 20164.215278 19905.063718 16034.916131 15989.439494 13995.781284 13773.981743 15492.776301 7284.079657 5903.832523 4486.996159 6351.238078 18943.439462 21050.110537 18621.764310 14158.918382 16068.665177 14742.077923 11107.049062 11172.608102 5485.772666 5189.119053 4123.903231 18138.841879 17531.820371 18663.486203 16456.030590 14612.749946 13512.509222 12230.855910 7247.491588 8631.619866 5580.459088 4311.218020 18244.850835 17778.610186 16865.899747 13937.459814 9481.314123 14407.507967 12633.532182 7702.145957 8261.150818 4956.186295 5037.220379 19740.572667 17161.825325 15040.705020 16970.627235 13985.719071 16981.597093 11474.475394 9425.267665 4787.744284 7630.673492 4347.131413 19261.594198 17691.487611 15253.994625 16752.554266 15380.818103 10153.228103 10133.728195 9793.081516 7489.493620 7427.753079 5928.152824 18870.333619 18685.106854 14929.063660 15546.163404 12409.213773 13146.146210 13781.440088 8133.064406 11747.645424 4639.201234 5234.868724 18126.335473 17963.436469 17171.487448 17864.278044 9264.381376 12037.097487 10879.445338 8039.583334 5966.831626 8155.041416 3887.870081 18360.109332 18042.019714 17257.152010 14640.077098 10405.225920 14782.165595 8926.079580 10763.664292 8693.580036 7436.570070 3936.273431 18080.170770 14272.316525 16847.142198 19444.805466 15797.898561 11948.558318 12073.395987 10170.333566 9709.304652 9022.860635 5518.079817 19200.618299 16679.645054 15067.822715 16933.260235 12087.225910 13341.807798 12555.441994 7112.618118 14909.495278 4547.499620 3670.191655 17152.796395 16323.178413 12700.169405 16959.489529 14480.988851 15846.632266 8952.636093 8725.347200 6375.854263 6067.325026 3380.079163 17080.673145 19615.821396 15550.254648 15961.116205 15815.861033 12535.222809 9281.281132 9015.515452 6780.250551 7483.324411 5345.407110 15235.426707 17387.100878 13787.694025 19357.023801 13605.975603 10189.641864 11489.644860 4634.877520 8538.091700 8800.988866 2277.561432 17185.632738 18231.175661 17836.587344 14702.562633 12353.817511 12153.024757 9375.099781 8793.217214 5836.989504 5244.027593 3904.186175 13194.701917 14228.429313 17275.014231 16476.286592 14007.310178 12241.907277 9700.886995 7689.341909 4236.270530 7470.455132 2764.083125 16451.478072 14550.525156 14773.101696 12542.316407 15520.183330 11786.140403 15204.252232 10204.803127 6613.780135 4783.348940 5841.573213 14114.180376 15199.408485 14532.321602 13664.619918 11704.385704 8760.600885 11922.166306 8106.104651 10279.326775 3227.606962 8818.912653 14716.080412 13151.197653 15406.048172 13138.047618 9945.567159 12873.577796 11065.952522 12065.003016 9631.040582 3221.054330 1901.899378 14345.522286 17575.064018 18099.399616 14564.942636 15309.679020 14287.662968 12500.302491 10287.996772 9407.633533 8988.516805 4941.622751 15493.797377 14659.363739 18546.975659 14450.172918 14587.439996 11556.925954 10227.331495 8722.328809 8889.557638 8821.151690 5616.689869 14069.471451 13705.201332 14833.700214 13331.402415 12591.398883 12664.369181 7776.566789 11375.706308 8030.806913 8468.081927 4373.868153 15671.122989 13642.315585 15167.469310 14818.562297 13256.671969 9618.740759 11916.628095 6350.512159 9016.039674 7823.897093 5168.233253 16173.477782 13389.448582 12286.980132 13483.319051 14219.519040 11023.559237 11021.795529 9105.631027 3635.488171 3532.889488 5847.794617 13804.112716 12971.045610 13444.356191 13712.446734 12609.499854 12817.079728 10313.190293 8160.243376 5451.624389 5012.024584 2047.543189 14990.010881 14051.913871 13190.726150 13211.786984 11161.991892 12880.819743 8446.408305 6147.548223 5108.788307 3856.256597 4017.409311 14825.276528 12874.811345 12376.617409 12903.137337 10881.156769 5585.216992 8823.702157 12866.706661 8669.757501 6893.780457 2922.017384 13275.347344 15371.424335 10715.863909 11129.069570 7634.601535 10759.613643 10718.370313 7953.814072 8139.444896 306.230145 3608.557062 14317.539343 12273.775808 13318.128600 13253.573657 8581.734646 10585.467381 5890.621212 8949.632841 8305.181807 7530.165933 2061.943513 12158.465015 13422.934124 10368.713201 15641.648410 7931.311630 9690.576843 8794.207636 9106.274399 7074.354799 4221.849476 7762.131039 14592.945408 14449.094042 13897.189679 14385.256331 15186.489306 8823.584265 9798.242088 8637.519852 5651.740089 6118.955259 2543.795010 13655.343477 12344.271781 12759.475890 13413.019285 10892.651541 9742.797313 6453.300689 11829.381740 6007.060388 7938.880658 1765.218985 12942.368844 12283.545722 8083.279464 12199.982681 7490.182716 12151.460442 9709.161836 8127.000990 1277.546914 4104.432454 6325.785313 13102.053248 11674.760161 14604.455209 12234.372273 8947.772358 7620.246868 7822.167543 5205.715063 6849.873031 2993.980182 3341.530966 13736.347344 11415.238410 14361.792107 8357.111864 8234.882213 7692.205090 10502.653860 6685.272877 5130.723395 6047.920934 2648.616372 13367.868750 12939.490679 11566.184257 10139.202770 8910.314634 4861.116851 5437.870052 8183.421150 4800.927478 5966.762863 5482.706623 10354.287545 7751.856651 12620.046039 11343.812578 9716.298637 6962.070923 10962.578619 4027.048364 6406.595163 3953.318112 1869.271336 13677.597942 11887.865149 13510.424284 9832.034077 8899.342293 13788.914046 7431.675195 5223.464943 5497.117237 5311.879581 3774.006023 12737.745003 13140.024475 13319.878526 8278.230988 9219.219721 8443.595336 9551.204294 13998.949853 5482.083459 6731.251927 4366.732867 21120.497229 23257.498477 22691.029983 23652.690227 13816.880778 19339.006093 18980.174274 24134.613886 23948.582332 17993.809657 15032.737768 9928.673616 4741.971751 7419.075476 22472.683441 13053.612449 23027.709850 22989.461723 8194.413944 23123.839134 13955.170539 9705.441336 18537.884905 10180.020007 11048.512906 7714.554264 4500.227809 13055.086365 11299.467338 17437.980494 14173.575303 8545.405177 7291.371948 10610.165622 13666.182766 12677.219482 18228.441306 10053.321619 6803.262070 4662.039428 4767.761122 6112.066009 15808.284541 14418.688869 14544.350913 16327.011414 17981.375815 14184.373541 13311.115256 14606.198798 5946.644477 20176.033074 12203.766952 9547.351700 6825.957741 6502.522825 17204.666147 24389.871632 16788.238714 13462.095706 20571.341454 16502.290148 16634.708688 13251.054970 15691.528505 6504.803483 10102.460800 11373.078624 3789.048127 2579.893775 14264.378197 23806.674845 13553.758159 22136.609735 18525.119721 22212.592283 22541.213082 10980.662878 10118.681468 10501.262912 9703.090675 9307.940790 15342.859910 4133.869526 25645.119920 7623.932748 13521.781546 17062.082369 7310.427645 20018.512684 18728.881349 21315.677673 11145.585383 10487.125200 8024.735804 8233.891503 3774.972334 726.319609 11252.825880 10892.303363 12381.466994 21048.191069 16820.256630 16408.942153 9728.150954 7873.118957 7456.592938 8865.114146 11443.913270 6211.827953 5836.088882 2047.681305 20195.773920 18738.454169 10616.657044 7681.746528 12033.384157 10064.337708 8859.360497 7944.040271 7176.613029 12279.111692 10908.921406 7476.531302 5689.866816 5056.473780 10271.475912 12698.226431 13412.635344 8651.583821 13626.519359 11508.996737 12856.723240 12121.483250 14090.152697 7360.373466 7548.885053 8186.711311 5717.471765 2597.616877 10202.937925 10937.988922 19763.757502 17431.299423 4703.033292 9145.215209 7858.843550 18303.200282 6942.637412 12071.550688 18651.090932 11016.523117 5073.059661 5353.553582 12609.409440 6294.873414 11380.864778 22025.005330 9780.289881 16543.396905 7438.992168 12486.794021 6059.799906 9728.019056 10284.660843 23319.602189 5487.432411 5320.429782 7412.646919 5655.861574 7911.751325 12975.347431 6925.376164 5580.477702 12153.075331 20119.072322 18238.014400 9378.046547 6552.747757 8282.004810 7662.381557 6317.320035 7322.770953 9615.596951 6687.231806 5908.059831 8405.563726 1224.849516 7676.175789 13693.036712 7905.707760 13226.255859 9046.784732 6217.648174 7030.652548 6569.419609 4755.400699 4730.880966 9396.907204 4226.699266 4153.015875 2010.648229 7381.318700 6208.894689 2466.238786 6730.667042 4248.055362 8975.412939 4670.889510 5689.438467
</DataArray>
<DataArray type="Float64" Name="Velocity" NumberOfComponents="3" format="ascii">