<VTKFile type="PolyData">
<PolyData>
<Piece NumberOfPoints="1945" NumberOfVerts="1945" NumberOfLines="0" NumberOfStrips="0" NumberOfPolys="0">
<PointData>
<DataArray type="Float64" Name="Pressure" format="ascii">
 24223.331144 22275.851387 26355.998217 24037.137471 25326.311415 26707.990583 22406.607260 23756.605081 21633.257172 23105.238562 21319.874741 22466.015702 21485.784355 22715.707362 20956.669275 22308.088931 22603.896210 23380.318738 22793.953210 23645.105524 22079.553717 24216.326382 24359.493469 25346.992354 20827.352394 23189.534005 22403.346283 24260.237508 23715.126356 25854.202443 22288.804990 22597.192457 25417.936610 27047.609540 20041.362575 21005.815648 24285.911847 25308.657222 18908.602200 19674.022395 22023.625875 23173.713536 21381.719350 22401.681027 17520.514848 19735.597791 22542.635142 23950.744195 17322.007993 19691.823319 21155.145040 23348.077345 18495.221853 19338.280109 23292.136463 23067.475099 23141.471847 20446.495538 26862.761980 24508.788726 25201.286029 20925.609177 24913.507704 22519.913156 25594.848138 22497.589397 25173.227824 22018.237019 26271.442928 22491.549591 24278.675689 22087.070986 25195.207335 22795.874221 23200.625340 23099.290433 21640.603963 22526.719294 22675.588827 22981.471300 21410.661695 22231.573656 22930.281519 24435.245375 23200.575594 24224.272809 22139.414314 23380.947891 23045.940967 23157.862477 22255.115328 21768.021087 21368.540413 21606.640766 21103.134968 21921.212969 21230.020375 21836.678747 22715.002806 22466.670797 21295.379462 21587.029101 20131.871068 21287.482276 21451.212658 20991.048357 20464.012610 19660.820331 22608.787550 21476.415631 21826.686481 19287.566907 20534.547259 19574.992145 20586.017151 18710.217913 18909.581807 19226.856122 18396.258780 19384.879624 17287.676038 17403.973756 17398.034164 17298.875571 16709.899056 17041.604882 18150.044164 17498.564133 16935.876368 16078.508074 16794.960990 15952.096496 14653.031139 14903.250470 14433.652345 15885.868602 16129.505279 17184.614082 14859.817062 15394.919850 15656.606152 16230.411982 15199.346898 15763.079052 16614.484532 16868.805071 16384.606160 16445.135212 16978.644046 16955.704288 16021.205890 16782.339433 16601.881104 16415.648797 16295.831901 15192.334249 14622.011901 15091.390663 16421.631925 17381.810675 15823.835333 15187.111342 17548.063446 16083.410044 15611.140217 15289.216138 15399.001945 15571.447580 14759.026828 14250.422403 15969.088535 15461.230490 14962.740295 14406.570784 16857.490774 15685.629508 15218.215769 14186.847017 15136.492758 14525.422018 15159.107551 14115.072093 15345.571079 14813.810774 14683.237821 14781.834412 15544.090731 15362.903337 14715.996674 14574.028785 15667.664894 16318.445513 15140.033609 15453.773804 15170.863450 15765.776177 15339.071558 15900.401865 13889.942385 15167.882299 13500.656004 13928.071614 14161.619336 13520.347708 13488.558546 12535.584276 13418.803992 13575.524042 13842.189441 14778.821344 21731.214321 24813.959671 24877.184712 21226.818726 17934.955753 17928.064186 16747.252088 14268.905720 12083.218738 11480.960075 10036.799745 7352.268949 5562.027300 3730.141215 1525.585552 -3881.730330 -5630.551961 -5085.083934 -4152.015642 -3444.413807 -2877.307833 -2428.668126 -2084.713321 -1837.087438 -1679.358323 -1603.688745 -1599.126580 -1651.667355 -1745.430689 -1864.209631 -1992.882558 -2118.439604 -2230.564893 -2321.822209 -2387.537209 -2425.477796 -2435.423740 -2418.698025 -2377.712238 -2315.559791 -2235.675403 -2141.567422 -2036.621230 -1923.966526 -1806.398432 -1686.341575 -1565.848288 -1446.633292 -1330.211404 -1218.564408 -1118.363780 19794.449915 22643.366863 24808.699708 22126.064231 18012.077795 18937.686049 18298.634644 14963.531198 13367.320848 12969.981340 11091.198883 8133.786148 6073.450084 2696.924828 2505.266224 -7663.261230 -7102.304085 -4888.121844 -4150.555711 -3466.410104 -2901.076805 -2450.373239 -2104.471824 -1855.291384 -1695.927351 -1618.167962 -1610.982078 -1660.518420 -1751.155924 -1866.950790 -1992.990284 -2116.397688 -2226.915914 -2317.106082 -2382.246735 -2420.031108 -2430.151334 -2413.841177 -2373.429453 -2311.938197 -2232.744508 -2139.313285 -2034.999657 -1922.914458 -1805.843010 -1686.206052 -1566.050204 -1447.046308 -1330.413375 -1216.323199 -1099.890052 13863.871228 13351.960298 12250.299699 11696.587090 9520.999942 9662.030765 7390.424464 7639.046089 6385.979559 7000.364582 6461.775060 3773.558543 2723.414766 2024.899453 1549.912422 1214.665292 964.296792 764.250782 593.805109 441.210199 300.317559 168.352158 44.478453 -71.109563 -177.757887 -274.700201 -361.259719 -436.954908 -501.542590 -555.021632 -597.613378 -629.729952 -651.937841 -664.921455 -669.449380 -666.344669 -656.459616 -640.654873 -619.782513 -594.672450 -566.121674 -534.885789 -501.672432 -467.136264 -431.875306 -396.428366 -361.272948 -326.820306 -293.387637 -261.028981 -228.460032 13898.765499 12604.595561 11651.021734 11156.135397 9926.732096 9153.299592 7869.235910 7003.297323 6582.907052 5954.135951 4958.625154 3770.201907 2773.467858 2068.578757 1579.905734 1233.638437 975.787303 771.062424 597.873000 443.784429 302.169897 169.937747 46.048345 -69.433561 -175.934035 -272.734426 -359.184205 -434.814027 -499.383880 -552.890290 -595.549192 -627.765886 -650.099708 -663.228243 -667.913932 -664.974524 -655.257858 -639.620938 -618.912887 -593.961271 -565.561229 -534.466925 -501.384901 -466.969029 -431.816844 -396.467209 -361.399740 -327.039175 -293.784641 -262.180270 -234.029968 -1045.053654 -1011.019002 -1015.460332 -982.536205 -940.672889 -921.727331 -846.759972 -844.246647 -765.493614 -765.559375 -690.956127 -691.443027 -622.138514 -622.679400 -558.722149 -559.253730 -500.475936 -500.985428 -447.160885 -447.644586 -398.521629 -398.977936 -354.290760 -354.718911 -314.194249 -314.594019 -277.956174 -278.327749 -245.302610 -245.646507 -215.964775 -216.281764 -189.681511 -189.972567 -166.201241 -166.467490 -145.283436 -145.526113 -126.699692 -126.920111 -110.234464 -110.433984 -95.685504 -95.865505 -82.864058 -83.025919 -71.594849 -71.739932 -61.715896 -61.845531 -53.078181 -53.193655 -45.545216 -45.647762 -38.992512 -39.083303 -33.306982 -33.387127 -28.386305 -28.456846 -24.138254 -24.200162 -20.480007 -20.534182 -17.337458 -17.384732 -14.644538 -14.685675 -12.342542 -12.378239 -10.379491 -10.410383 -8.709510 -8.736171 -7.292247 -7.315194 -6.092319 -6.112018 -5.078801 -5.095666 -4.224746 -4.239146 -3.506744 -3.519009 -2.904523 -2.914942 -2.400577 -2.409405 -1.979832 -1.987293 -1.629348 -1.635638 -1.338046 -1.343335 -1.096467 -1.100902 -0.896553 -0.900264 -0.731463 -0.734559 -0.595398 -0.597972 -0.483452 -0.485587 -0.391487 -0.393252 -0.316012 -0.317464 -0.254087 -0.255276 -0.203234 -0.204201 -0.161364 -0.162144 -0.126708 -0.127329 -0.097767 -0.098253 -0.073258 -0.073628 -0.052081 -0.052351 -0.033286 -0.033469 -0.016050 -0.016158 0.000332 0.000287 0.016451 0.016457 0.032771 0.032815 0.049603 0.049667 0.067057 0.067116 0.084971 0.084993 0.102816 0.102756 0.119557 0.119356 0.133488 0.133063 0.142003 0.141250 0.141327 0.140107 0.126177 0.124315 0.089360 0.086636 0.021297 0.017438 -0.090525 -0.095851 -0.262178 -0.269370 -0.513989 -0.523521 -0.871294 -0.883720 -1.365251 -1.381206 -2.033666 -2.053872 -2.921836 -2.947095 -4.083340 -4.114532 -5.580771 -5.618841 -7.486323 -7.532267 -9.882209 -9.937048 -12.860815 -12.925569 -16.524557 -16.600209 -20.985347 -21.072803 -26.363627 -26.463662 -32.786889 -32.900101 -40.387663 -40.514411 -49.300916 -49.441261 -59.660868 -59.814505 -71.597238 -71.763391 -85.231058 -85.408115 -100.670649 -100.854242 -118.011167 -118.182769 -137.358364 -137.415452 -158.992518 -158.338876 -184.534636 -179.344273 -205.207002 -196.127528 -213.689767 -204.349594 22435.246668 23704.369842 19377.643211 23653.343823 23862.586630 20337.377881 20469.345003 19771.354527 21985.071662 19296.763553 21689.066300 24001.370496 23161.150190 19139.723160 25289.837275 16295.255741 12118.780412 17308.487232 18459.914116 18227.054570 20313.062565 17438.710293 22757.295710 23363.062826 25383.593275 23956.338256 22982.510078 25269.701106 19773.959794 19790.814407 18610.469471 7372.513481 21696.879334 24908.057928 23448.807054 23525.102268 14124.281393 21888.418711 23686.665549 22494.636590 13172.322605 22995.626164 16262.630704 24492.406013 18783.220060 11820.697894 25133.472630 23352.875806 25984.659413 17861.441771 22308.207370 19563.117210 11375.447790 16622.222839 20484.897212 24119.973744 24380.477467 21956.156491 25025.471808 24910.796901 21611.682790 24067.261931 24344.697796 20216.826655 20747.464651 22990.431019 25125.728184 23681.112402 24006.808658 21390.049848 23699.318818 23277.726559 24466.156031 23062.425052 22909.450391 20205.680501 14410.558134 22471.042142 23589.183640 21932.420675 22036.024330 23194.095906 20460.154136 17940.939249 23131.255131 25964.796927 14320.304033 16064.817144 23032.640675 22499.413506 20415.859084 22086.983612 24361.244001 20614.893992 20761.940498 22814.485283 21358.105956 11381.540799 19304.846159 22186.481504 21422.200322 22313.397374 23178.693805 16363.706076 22650.877286 16248.012353 21948.424390 23504.920710 7508.612587 16115.606762 22554.864048 20950.281318 22076.381354 9787.199405 22794.596118 14997.664958 19403.035974 13640.485561 15264.199217 8882.357451 8724.518577 24222.808601 23402.239068 13522.840781 24347.073764 11368.405393 20921.520799 14902.000669 16947.050219 17983.402527 16916.752574 15685.289041 21995.176485 20100.089188 18872.128222 21771.063120 14583.565937 18325.054669 16085.306557 10687.787844 18866.555189 19502.992961 15843.079084 23690.989129 21404.454678 23427.894887 24757.346581 22696.025143 17810.168780 17355.731393 14369.189167 19310.232295 11404.721984 15372.695614 22393.158470 19357.093059 21022.619635 22010.076642 17965.540864 19515.390001 14670.058605 17270.952857 9758.255311 12273.731553 11741.209507 22199.788170 18888.918247 24908.850809 16173.011007 14246.916130 14608.140117 17004.084330 13649.294429 8606.152512 7658.230038 5885.029912 18412.458396 18960.007919 21524.996877 21577.523745 20402.794741 17907.910731 14872.179626 17005.681487 13122.260367 6113.691581 3169.385719 18292.978049 19031.570346 20811.819953 18277.247213 12368.662047 9062.949017 7763.586263 10752.594055 6937.471557 6677.968518 6117.147973 19150.350419 18449.579189 19734.054826 19239.326723 18763.158704 9429.132498 16936.564685 8339.958668 9944.911391 4906.450805 6484.893556 21410.892975 19859.492762 21713.986766 17582.895999 10738.474512 10857.455622 11164.751714 9735.655929 1453.087748 -3504.113283 -898.385873 19826.285737 19540.079663 19350.915137 18685.527698 14883.307403 9053.085199 7648.728988 7108.925702 4568.885171 4450.086650 5646.016479 20998.929077 21168.157267 17703.933134 16641.471526 14233.798008 10005.000670 8011.055744 5901.941702 6511.003498 3719.769002 -9587.673896 22577.829076 20060.061936 20493.783698 15124.313680 14452.975214 13891.616885 7560.162064 8099.166727 7656.380113 8669.260300 6685.827097 22265.388573 21747.739880 16459.891479 17989.991058 13082.833191 13356.241716 17112.477246 14156.956614 9741.628662 6614.168326 3308.997165 20762.194914 17122.976465 20738.131191 16833.176001 15862.120078 15802.019777 11300.075430 3546.881415 13095.223127 6069.231009 7255.847393 23046.425804 21358.027152 20501.939549 20950.584773 18581.562524 14054.421722 13227.695034 11553.342517 10108.533277 8373.594706 -2160.328011 21415.621315 21190.154475 17795.618433 17765.182352 20166.714920 8067.659945 13765.684260 5505.651451 7235.477764 5148.976031 9255.217434 20615.303151 19841.797089 16983.366748 16362.047585 14565.453980 17377.024367 14014.499716 13855.551769 6705.555127 5866.355512 7250.698218 21587.546607 19678.579328 20834.933802 19120.020108 18023.416372 11492.171583 9542.835564 12578.807839 8958.949599 9564.112294 2469.528912 21800.618268 20877.219794 13817.639369 13362.477135 16705.459131 10032.129992 10813.507775 5489.059844 8653.263071 6550.224361 4423.147559 21148.448618 19662.930981 21665.237617 17233.317929 17760.105547 9470.071250 10562.985807 13452.221389 5779.504067 8574.915542 4387.372103 22524.538633 18162.035457 14813.461670 20928.658312 17666.402123 15821.926695 9717.294704 7499.479872 10340.696870 7806.344682 2874.689833 22998.788689 12343.625837 20829.222737 12222.249348 16054.220992 14718.120498 8374.479565 7877.230607 4924.993502 6032.434397 6562.431993 23189.762722 22786.355868 18747.218763 16579.216054 17299.965693 9606.158113 6844.910313 8091.949605 5743.974760 4150.869098 1899.099750 22136.443271 16991.577968 17058.867125 17972.295718 16082.751325 9844.244971 11987.223401 5636.418375 4584.046632 6125.331069 5351.266731 23986.939631 23305.090687 20959.948499 16780.328231 12874.875332 11236.468973 8511.876828 15010.770433 7102.757681 1332.604843 4619.476309 24910.424453 19959.088319 15753.563549 15902.065909 20863.298770 15195.923890 10082.855862 12710.495892 8704.810470 5868.778318 3850.475935 20487.920538 23727.540996 19292.153676 15703.412795 10240.393623 10773.456290 8702.174696 7031.701483 16925.155761 4917.711041 5419.405473 22696.522965 22483.859294 20783.224686 11765.803107 15433.716084 9134.733948 11052.875034 4494.829424 7235.224679 6422.071219 4620.275250 21518.792684 18040.807547 20654.871203 17650.477297 9662.783198 8191.510770 7804.445126 6981.167504 4638.449735 8897.923868 3170.001051 21825.834768 20100.029563 19018.179916 19305.203198 15314.479131 12437.544429 3679.234994 8948.138289 10056.444242 3917.442289 6437.217188 19341.982929 20423.990997 15562.163330 13025.252011 13397.985957 12587.716733 15016.671469 6307.036534 6504.107866 7194.112127 4758.583628 19910.955663 21324.163577 15458.423218 13380.884097 19123.394870 9852.010186 12061.167064 10587.946156 9129.166547 4126.285690 6729.248664 16334.599718 20516.381345 17786.788830 16285.500369 10873.533257 12556.619737 6723.900914 8012.044542 6735.400652 461.527645 5720.503916 21848.506779 22085.078354 18399.469709 9681.862845 14380.342787 10857.502656 8555.114591 12741.105808 7095.261307 9797.625982 3665.615758 20778.956773 18686.374007 18114.301138 6798.453926 9333.830221 7252.613475 5360.209685 10352.405467 6947.000439 9885.107850 3615.466170 20870.156893 15145.964836 13196.723276 18467.998674 10579.409989 13147.507425 13098.317543 6316.558618 7038.240684 6758.422048 4811.753887 21281.200141 20241.766471 18706.342368 16444.298473 12359.349641 10494.567157 8779.621955 15233.296296 8644.080102 3953.080069 3361.183782 20155.746694 19281.346297 19401.433813 16237.269896 7657.621844 14188.643754 16087.112462 6190.640809 10580.487035 3528.968349 5037.512737 17211.561318 16793.144807 20522.190876 13566.341898 12464.207106 11606.401624 16928.991062 11801.714111 8824.940987 5793.731153 4582.886798 16312.150476 13455.227724 18838.318897 17745.642508 10276.854881 13770.959602 11136.680567 11045.232221 8187.864107 5418.388802 4731.688618 20299.755542 16900.713833 14009.739953 17362.187852 17718.816241 14293.211398 13389.747015 11193.123931 8191.350287 5044.913207 6327.661620 18003.663248 20336.443881 19175.859780 16816.240474 14601.656195 12838.457575 10916.537073 8487.592099 11500.871844 4059.938258 6532.178105 20420.295443 16623.091643 18514.062044 18045.911361 17436.154779 14839.302298 8465.010419 9299.963597 6518.134430 5772.165749 4771.631734 19082.985941 17319.603139 17404.409820 15534.638444 11367.473664 7542.279737 8904.912613 6616.188897 4948.615714 3605.887301 5172.241487 17962.996750 13728.808201 18607.345574 12952.998605 12160.846866 7808.910034 6741.924156 5858.639779 6951.397077 3797.543669 3855.922508 18107.863845 14842.212389 16316.367261 13186.479883 8795.450764 9127.824677 10878.006500 6970.140608 5189.277216 5507.232243 4926.622377 17728.206449 14875.278044 16288.817970 6451.521070 12944.113059 9771.378613 10841.813207 7012.077756 7287.148752 4828.210657 5332.583100 19147.310383 15307.944405 14320.138429 14869.976702 11309.380114 11651.143865 10024.900756 15375.244586 6918.871348 4816.831448 4874.102251 16091.183571 16946.512806 14568.227510 14511.277979 12536.851010 9901.371416 9772.816488 10019.900568 7136.577459 4564.850714 6258.875404 16314.021409 14796.399425 16786.726202 15233.739578 11284.665735 11748.453173 7366.474928 4441.511668 6939.206582 5756.849168 4143.483289 16925.417658 18924.773232 16904.873429 13157.399488 14367.333931 8114.188578 5538.468207 6363.978648 8335.427274 4805.189442 3326.976290 18935.020611 17461.490212 17732.824056 13762.355269 12949.081143 11456.001163 14565.062004 5500.312079 5082.970037 5186.290957 4548.978616 16799.417677 15525.174235 15250.354986 14708.273812 12992.891376 12340.357504 9249.270231 9738.256892 4984.071774 5193.260169 2711.117256 15401.683650 16767.633536 15355.625971 15337.462554 13069.636293 12131.068019 10210.184881 7723.859328 8319.018665 5020.655204 4406.682469 16031.210168 15595.828230 14880.950015 11847.574872 8360.397313 11243.945102 12429.346832 7021.784569 7274.208125 3906.685747 3512.091603 15473.288454 15379.371143 13948.826538 14755.471141 10859.175439 14253.727060 10581.585383 8664.771573 3818.138797 6460.153188 4542.482155 15045.146068 15110.156099 14719.639772 15943.975633 13038.470819 8752.434810 9288.384599 8776.737522 6675.246472 5580.661973 3028.154423 16368.528633 15986.739971 10593.542753 14066.337767 12065.514433 11946.667439 11260.466719 7787.892905 9631.531735 6267.303306 3866.776293 16677.633321 16709.733850 16285.092350 16648.405837 9309.969769 9921.119923 11200.641502 5601.169908 6147.708793 7343.189484 3008.038912 16701.082666 14838.347508 13433.090032 15185.887513 9641.614266 11531.213990 9192.583392 9936.641882 7780.745092 6371.592523 2217.950992 16107.730750 11047.744665 16908.555698 16245.691273 13106.453718 10054.229225 10264.307933 7681.703076 8419.704298 8568.665118 4281.333923 16303.230723 15526.052786 15990.909484 15029.723809 10696.380334 12130.710031 10549.740725 6509.443621 12372.886771 2563.808378 3209.013498 17472.573924 14568.692969 11109.484057 16032.107037 11661.185635 13497.899567 8592.285588 7862.111251 5356.523464 4459.231132 2905.069669 16930.989456 16351.058113 14026.312473 14497.797757 12504.667996 10579.847969 10038.785431 9159.542488 6618.160823 6800.764758 4053.914386 13192.289442 16687.496106 11725.955607 15838.437445 11496.422601 10307.366012 9894.139496 4168.313847 6321.798517 7811.536952 2442.522069 15160.686118 16956.346823 14828.862172 15479.964885 12464.596770 11802.717654 8836.886930 8444.001898 4797.567761 5986.313604 2810.995985 13106.152291 15761.379091 14295.155300 14334.139499 10855.505308 10093.138145 8780.416661 9177.887601 4462.430231 6457.176792 2991.925074 16638.800767 12363.079890 12549.102062 11652.061511 12673.713616 11386.338895 12488.531293 9548.702182 6234.245714 5650.246804 4275.764815 14227.859010 14348.941202 14109.394314 13462.518980 10090.449449 8619.984434 12149.313863 6778.319988 9672.125896 2780.950652 8409.929984 15309.436297 15380.188834 14374.918422 12854.710545 11231.115501 12136.499833 8955.870349 10485.993357 8669.475101 4752.458934 2737.787633 13310.133570 15047.386090 14337.487204 12239.548144 13763.773172 13221.384815 12476.494116 9204.125313 8832.268972 8913.339134 5266.286418 14342.370241 13475.722399 14569.738990 13347.745344 13677.786964 10843.057109 8514.600541 7342.041125 9564.164406 8088.248979 3621.913301 13059.040834 12080.200100 14667.321207 12413.070128 11051.689584 10669.594222 7392.492508 10690.542106 8457.542023 7889.156382 4746.529859 13942.614074 13084.368676 12896.877780 13563.846282 11284.283930 8797.110026 11684.756767 5472.379132 8445.696087 8015.432364 5294.147233 14968.713600 13016.117008 12513.695421 13845.146219 13059.087538 11241.067136 10139.508520 8190.307750 5196.023217 3807.227277 6065.360040 13474.949289 13846.683161 12952.170532 12981.126115 12479.024285 10258.651692 9905.543024 6370.008423 4596.253023 4756.730378 2851.339096 14796.822254 13214.603440 13227.928044 13348.489328 11188.157621 11848.819630 9322.001751 5880.940728 5113.509467 4030.793968 5340.495065 14475.034443 13074.813803 12668.694109 12900.694348 11072.054659 5688.633276 9037.352261 11378.684105 8209.840045 7120.897271 3569.975312 12878.420504 14298.837014 11598.601797 11589.193009 6696.340454 10658.002121 10464.639079 8554.619596 6956.291672 2391.478227 4520.426251 14957.160448 13442.706994 12709.089741 13701.221188 7943.136796 10217.066989 4527.212657 8751.066775 7960.706535 6858.000155 3434.465536 14086.023526 15082.541502 10261.943973 14482.924563 6856.353857 10467.187896 9973.812618 10018.825023 6607.837966 6449.810543 7310.754162 14254.140122 13131.088334 12934.041224 13497.664171 14287.090062 9207.081432 10557.498113 8036.641136 6829.901924 5047.232433 4238.458063 15849.080394 13983.104564 12060.669739 15836.568940 9735.401486 9685.881308 5784.374731 11986.699112 5609.699504 6678.733583 2942.730430 15161.488761 12295.410579 9739.573054 9583.467620 10137.190209 12201.935710 9940.811062 8750.491692 1908.884989 2777.911966 6560.482224 15088.451652 15658.642550 15144.159345 10022.426742 12741.150778 7874.381292 8217.111601 7180.541454 6131.860748 3152.365822 3952.579617 14270.734327 13626.173638 12631.985812 9102.071218 9504.310702 8066.359512 9992.731106 6882.592209 4843.444737 6438.304583 1198.888277 16241.774114 13443.078115 13816.445352 12033.363615 10252.442668 6296.013149 6945.057258 8107.032982 6357.235792 4196.473143 8724.670734 11157.727060 9065.483708 11040.499123 13369.303654 11627.555390 6591.689137 12942.397318 4448.207942 5501.323090 3712.831396 3073.670510 15067.352807 12957.958556 15192.124681 13762.749242 11651.325860 13617.237195 10658.860774 3689.558532 7507.294726 6442.678712 5059.439147 13593.677208 13486.071627 15309.789781 9530.674108 11637.029316 10393.931379 12016.645648 13994.022445 6084.083323 6455.506736 3813.950252 21188.440713 23751.708929 21846.353998 21999.785243 14365.897491 19915.869419 17647.263092 23287.702887 21752.432693 17314.382191 14927.351660 12155.416071 4004.884329 9957.854870 21055.115767 11856.748902 25557.949794 20279.098006 10188.347391 23509.501972 13799.707196 9424.135538 17887.882090 8895.618182 11564.482492 7126.259497 6217.102867 13037.519899 12748.375308 15913.655443 14664.499723 11566.754486 7128.975064 11492.331214 13687.577786 13919.950238 17949.015995 7542.262192 7775.685660 7821.640057 6655.867316 3740.136894 18457.075259 15871.089840 15241.390297 14342.922978 19017.924087 16264.377302 16137.708330 19971.646206 7599.568671 19464.066540 12552.946332 10911.184793 7606.981683 5006.354119 14257.786058 23047.116871 14436.911057 13785.064260 19410.991286 16600.284179 17193.328650 12348.861121 12675.641667 9774.394223 10916.972205 13598.524973 5200.778341 2423.767905 16489.113743 21305.037154 15793.866373 24585.938783 17109.429998 22435.221570 21670.488122 13984.948373 10777.935783 10914.422905 9988.113468 8901.628992 15618.798833 4510.220942 23409.922430 9291.790317 15039.208126 20160.652718 6948.653215 19040.079696 19261.117067 22309.117886 15335.114839 11514.044245 11525.020765 8752.316588 7111.661897 5691.373658 10103.042652 12036.162485 10504.470143 18725.731339 15185.822954 17991.616006 10037.898395 10149.071700 6758.346378 8042.317461 15134.640029 5677.835905 5047.333934 4569.573179 16943.672768 20900.049201 11780.658863 7418.762987 13148.159244 10634.372858 9517.886203 8375.593290 6213.368293 10810.263503 13923.119612 9418.241010 7273.450782 6908.439074 9224.371165 14646.313249 14240.765350 9005.929236 13167.489804 9928.672172 14455.848310 12394.635336 12847.880798 7430.793210 8784.015449 6431.243944 3339.586970 6728.919105 9095.802944 10833.905962 18543.359877 15832.410052 5852.851246 8400.528384 7145.285287 17858.135178 8656.953809 12115.008744 18187.983651 12633.806424 6499.996775 4699.533192 12089.148099 5186.679794 11740.484911 19221.130376 11054.567182 15228.943546 6894.869730 11465.787312 6741.289178 11128.547154 13237.974972 22550.069413 4431.595946 5659.491518 9130.057186 4807.207263 2082.224500 11844.201984 5302.514548 6287.291297 11069.510766 17574.201761 15796.487436 10473.676237 7704.720806 7246.487466 5467.828471 4494.098766 5403.743931 8742.505559 4697.367539 5198.130061 8130.111442 7037.562421 8899.707165 13482.144672 7444.470524 13621.008238 7587.444230 5957.403242 5645.217693 4767.529953 3598.916490 3481.884006 2944.964646 5200.234476 -4761.939916 5078.843335 6930.544221 5708.741067 3991.662447 4407.173618 8195.959875 6259.148606 3896.000188 5597.383245
</DataArray>
<DataArray type="Float64" Name="Velocity" NumberOfComponents="3" format="ascii">