<VTKFile type="PolyData">
<PolyData>
<Piece NumberOfPoints="1945" NumberOfVerts="1945" NumberOfLines="0" NumberOfStrips="0" NumberOfPolys="0">
<PointData>
<DataArray type="Float64" Name="Pressure" format="ascii">
 25045.158960 23669.298269 26465.199490 24128.591575 25482.715889 24613.292489 22562.054218 22871.058300 22047.901512 22604.216770 21974.753131 23493.795960 22072.874451 23295.182367 22438.891515 22788.618213 24260.876670 22887.429952 24151.564816 21965.634088 27293.909519 23763.848511 25365.480836 22619.058263 27625.604276 25356.472835 26752.477770 23394.386092 26999.898988 22961.589625 27317.622474 24577.865705 20717.620283 21276.467888 23006.711336 23437.530607 22379.009514 22171.560644 25345.721939 23451.837168 22742.249060 21705.641735 23909.113302 22153.146640 23227.314229 22795.953864 24324.227550 24144.315688 22519.356820 22646.349491 24469.047675 24722.280178 21883.070863 21451.800771 23146.751874 22419.273485 22747.705106 21946.117338 24177.404055 23292.249338 22000.252314 22306.590503 21842.161975 22635.033059 23976.467259 24727.863627 22211.351739 22818.079756 22810.497820 23580.464428 21149.840705 22157.606928 22091.587374 22761.158824 21932.722314 22312.262727 22678.056414 22279.627056 23923.141254 23348.675769 23391.598022 23206.424084 22948.181072 23398.088378 23340.247765 23380.038887 23541.507307 23389.816548 23945.854861 22749.028132 23721.548045 22035.054863 24301.700155 23101.632580 24860.269281 24049.887942 22658.482542 22252.681259 22462.345759 22622.844414 20629.385657 21199.149232 20104.627661 20890.651495 19363.642001 19776.866762 19336.484099 20120.325713 19142.938556 19635.474486 19503.054436 18890.487275 20079.536029 17893.703566 18746.035902 18380.491056 17216.835300 18585.853675 17037.905420 18252.209045 16636.544249 18170.349083 16649.769886 17957.038145 16624.474557 17649.921475 16966.920225 18184.637110 15891.765585 17676.576608 17243.418955 18587.229571 15444.816168 17071.755643 18036.019542 18767.848956 19020.207218 17324.568146 21870.825942 19426.390939 20276.095365 17777.207229 20334.930900 18703.753961 17915.548563 17161.763481 18403.895728 17680.421779 17338.342309 16821.595472 18815.802895 17584.050644 18506.701642 16662.596779 19382.952804 17843.527689 18266.935506 17344.454318 17858.703985 17972.009477 18294.169868 18810.836162 17734.113589 17839.442848 17259.784036 16571.067229 17555.708007 16889.749338 17227.800681 16330.421702 17659.574931 17284.438842 17237.285088 16966.889376 15760.033852 16272.934374 14309.428462 15407.307685 15822.982123 16797.327813 15477.439532 16652.648687 16459.172064 17450.395588 15050.022008 15866.860193 15120.448613 16066.193494 14385.714593 15341.915369 14440.455514 15174.951308 13418.329478 14547.926494 13858.218924 14913.852953 13198.614231 13932.268296 14026.511467 14340.125760 14020.143604 14886.559873 13507.092259 14666.949344 12889.529010 13728.342656 12290.079249 13651.522245 12536.017455 13568.117231 22724.525395 23801.027534 22916.083729 22561.183919 21297.872574 18639.659922 16462.647184 15406.018228 14243.415350 12585.120537 10836.770431 9194.390313 7393.845968 5759.171984 4337.407302 2703.435655 498.310640 -2761.157696 -3746.132954 -3214.352928 -2507.423243 -1953.864171 -1545.806836 -1284.884782 -1162.188030 -1159.446539 -1251.824844 -1411.397071 -1610.401517 -1823.788012 -2030.854648 -2215.993083 -2368.704092 -2483.105262 -2557.149411 -2591.733154 -2589.823754 -2555.683783 -2494.233739 -2410.564038 -2309.588831 -2195.823018 -2073.258739 -1945.316852 -1814.850941 -1684.185209 -1555.173450 -1429.280530 -1307.754720 -1192.325231 -1089.494990 20067.939775 21851.185868 21615.875045 21541.706474 20846.181659 18400.553370 15927.086299 15041.909970 14177.514384 12701.346966 10567.247366 9013.688253 7089.200831 5429.817514 4300.140345 3301.789986 931.562228 -4265.247834 -4011.407134 -3119.772023 -2514.379362 -1978.397750 -1574.168926 -1312.390463 -1186.537703 -1179.246182 -1266.367069 -1420.580957 -1614.618923 -1823.774471 -2027.532902 -2210.334540 -2361.623055 -2475.390315 -2549.428874 -2584.467571 -2583.317264 -2550.106750 -2489.650425 -2406.960733 -2306.899463 -2193.950570 -2072.091890 -1944.741939 -1814.759703 -1684.478314 -1555.755828 -1430.020029 -1308.224719 -1190.267394 -1070.946693 14740.982034 13660.110584 11743.823052 10801.111677 8935.011102 8658.361931 7134.490670 5338.740080 4440.640589 3108.571994 2258.926251 1824.711462 1529.176669 1309.927518 1133.432928 979.568069 835.948279 695.564969 555.323388 414.841277 275.415134 139.190127 8.556786 -114.240773 -227.325307 -329.282870 -419.177757 -496.519130 -561.202798 -613.443545 -653.707503 -682.649939 -701.061107 -709.821052 -709.863113 -702.145261 -687.628036 -667.257780 -641.953913 -612.599180 -580.032026 -545.040496 -508.357275 -470.655678 -432.546522 -394.575804 -357.222724 -320.894793 -285.899802 -252.273986 -218.693262 13969.881159 13099.064011 11453.197300 9962.313625 8510.095255 7440.831163 6243.840254 4883.481717 3780.001753 2931.743001 2292.829117 1852.193117 1546.314866 1319.895401 1138.871774 982.183436 836.909924 695.714406 555.251975 414.930365 275.875088 140.103020 9.917587 -112.489440 -225.266936 -327.009077 -416.777027 -494.070548 -558.773170 -611.086707 -651.464926 -680.552043 -699.128887 -708.067740 -708.295739 -700.766006 -686.435351 -666.247260 -641.118960 -611.931492 -579.521952 -544.677304 -508.129373 -470.550818 -432.552046 -394.679153 -357.413516 -321.176385 -286.358843 -253.495762 -224.398856 -1014.665787 -979.986375 -984.964415 -951.517794 -909.794582 -890.648544 -815.807334 -813.301439 -734.981407 -735.075930 -661.219312 -661.731915 -593.423898 -593.984468 -531.211025 -531.756818 -474.297172 -474.816319 -422.400619 -422.890246 -375.231088 -375.690281 -332.492672 -332.921238 -293.888155 -294.286345 -259.122864 -259.491261 -227.907854 -228.247307 -199.962471 -200.274034 -175.016376 -175.301264 -152.811102 -153.070646 -133.101199 -133.336812 -115.655022 -115.868165 -100.255218 -100.447378 -86.698950 -86.871613 -74.797895 -74.952530 -64.378057 -64.516100 -55.279429 -55.402268 -47.355521 -47.464488 -40.472802 -40.569165 -34.510056 -34.595013 -29.357695 -29.432370 -24.917031 -24.982473 -21.099531 -21.156713 -17.826069 -17.875889 -15.026186 -15.069466 -12.637362 -12.674854 -10.604314 -10.636701 -8.878331 -8.906230 -7.416631 -7.440597 -6.181766 -6.202297 -5.141063 -5.158604 -4.266106 -4.281052 -3.532258 -3.544960 -2.918227 -2.928993 -2.405664 -2.414765 -1.978807 -1.986480 -1.624153 -1.630606 -1.330171 -1.335584 -1.087039 -1.091568 -0.886416 -0.890195 -0.721237 -0.724382 -0.585532 -0.588143 -0.474271 -0.476432 -0.383222 -0.385005 -0.308835 -0.310302 -0.248133 -0.249334 -0.198622 -0.199601 -0.158212 -0.159005 -0.125149 -0.125785 -0.097954 -0.098457 -0.075374 -0.075764 -0.056334 -0.056626 -0.039905 -0.040112 -0.025271 -0.025402 -0.011700 -0.011763 0.001465 0.001464 0.014825 0.014880 0.028916 0.029021 0.044204 0.044350 0.061056 0.061231 0.079692 0.079877 0.100116 0.100284 0.122017 0.122128 0.144629 0.144628 0.166553 0.166362 0.185518 0.185033 0.198086 0.197167 0.199283 0.197749 0.182152 0.179774 0.137222 0.133709 0.051881 0.046874 -0.090340 -0.097276 -0.310569 -0.319957 -0.635482 -0.647938 -1.098254 -1.114491 -1.739548 -1.760383 -2.608522 -2.634869 -3.763793 -3.796660 -5.274324 -5.314799 -7.220155 -7.269391 -9.692928 -9.752109 -12.796102 -12.866414 -16.644800 -16.727388 -21.365192 -21.461107 -27.093340 -27.203479 -33.973425 -34.098470 -42.155313 -42.295656 -51.791418 -51.947082 -63.032861 -63.203378 -76.025047 -76.209077 -90.903270 -91.096625 -107.791779 -107.975812 -126.827405 -126.897866 -148.325633 -147.675583 -173.972344 -168.699242 -194.877720 -185.595511 -203.487459 -193.911176 21024.684754 23714.121406 21258.989585 23254.005448 20896.469495 19900.496180 21112.171370 20807.922743 20542.533005 17616.083739 21352.318680 22788.494209 23465.029727 20463.593802 26490.964243 15770.756956 11252.971551 15527.277718 20733.963530 18071.138971 20191.439021 16014.636152 24536.002767 22236.131805 26474.899918 22407.097653 21781.636997 24249.506110 18052.259597 21131.720137 17532.806823 6684.071663 21329.074656 24630.217488 24875.845207 23929.145970 13879.306166 21807.391190 21532.908448 19771.932403 12799.591206 21638.088551 14771.266744 22025.981372 19057.968795 12091.015749 23115.266620 23462.451783 23328.106353 19867.557828 22621.603524 18237.554529 10804.132171 16547.595210 20061.269542 23331.139734 22844.728236 20956.549657 22704.518438 20099.461276 21415.292780 21070.972206 22160.366562 21412.847947 20920.859507 22354.238239 22969.815455 23313.463404 24778.486345 21463.900705 20238.296985 22549.295505 23090.015291 22106.035006 22353.803875 20324.668251 14573.897905 24207.351907 23104.847257 24999.388392 22104.155248 23225.742366 21740.913012 19005.528625 22009.849765 21122.077249 14324.752891 15449.832580 23018.356025 23009.951196 19694.218376 24307.324669 20862.701334 19531.689744 20216.582712 21984.881173 21811.091643 10794.524133 19586.572923 21632.601156 22094.821139 20677.958766 22597.193406 12889.805941 22387.831371 15835.094451 20913.876185 22013.157841 7685.006793 17829.183740 23556.189044 21335.236145 23813.242090 9333.938900 20217.556698 14969.148009 20843.943338 12287.021250 14056.714549 7556.545364 7569.597567 21122.816138 21290.327115 13056.827576 20657.094897 11073.547688 19778.892880 14397.346097 14552.281623 17630.728202 17017.421315 15035.954419 23630.686584 22888.706404 21521.229884 19942.920367 13821.820837 17832.878794 18141.503470 10242.025687 21474.556007 22437.111064 15073.077872 22422.919301 21475.126925 24453.376377 22855.006755 20983.320035 20362.946314 17416.816722 14550.978522 18687.407649 10154.916326 15402.194409 22167.721141 21320.033318 22496.803795 20848.010305 20905.667734 22504.646836 16153.430173 15853.320114 8609.320734 11331.034178 11118.920589 22512.804763 21640.458035 24168.103464 17229.701687 13933.815613 14818.824703 18119.251309 12718.615122 6412.997787 6899.830801 4096.150811 21671.036180 21769.388509 20768.465045 22234.933306 22332.298079 18738.968842 14191.282807 17653.645981 14219.741007 2012.706389 3109.090722 21647.451708 20993.083489 22240.069675 17460.696244 14130.070370 5969.058156 8595.912254 9786.357907 4983.749973 5103.640705 5032.596431 22015.959971 19083.947793 20805.304334 21582.045139 19835.338361 9125.238924 15955.365377 9773.115538 10666.146022 6126.776290 3524.024741 24008.029106 23595.368268 21105.448419 17773.713435 11868.736469 10182.333013 11339.560963 9661.773503 3992.788310 7878.918472 2165.747073 21827.461648 20863.939824 22147.260191 19627.918218 16684.379898 8941.230960 7361.245506 6225.983409 7058.843121 8366.899163 3641.477056 21301.783976 21280.927030 18020.877138 16082.794100 15048.951433 8675.610945 8594.841730 6641.850903 6982.750122 5585.620958 9333.564676 22878.119523 23065.732411 20597.379343 14412.461228 16116.719088 15922.453160 7188.248537 7846.415949 6951.550863 7735.955483 4339.988053 23048.207658 20631.989466 16616.702190 18050.027698 12406.422882 12621.920976 16600.450663 15340.342740 10883.006879 6260.627630 2762.308375 21053.679046 18033.358105 19613.052051 17510.170602 15951.190195 15919.627253 10560.263532 4539.022451 12068.461954 8372.939036 5876.613006 22784.544485 19155.400271 21585.246291 21126.066264 19050.553336 14718.256039 13093.749288 10896.678719 9915.167175 7456.954594 4551.855415 23344.479304 20104.756836 17009.164795 18237.305113 20239.153422 7804.619244 16271.968766 8203.348544 7782.148344 4564.416305 4524.636880 20247.506598 18971.452033 16811.437358 16780.978316 13385.267642 18217.645557 15206.070564 15120.374911 3621.876811 9226.663950 7240.632115 22503.517619 21918.759409 21313.552647 19424.649565 19190.196801 11184.533706 9605.747572 12361.154222 8289.604654 11718.621317 17956.934858 22751.009113 21280.741809 15427.505219 12829.229068 16414.086724 11589.077976 11176.518235 8672.011575 9947.441107 6673.696441 4937.649639 22306.232177 19926.286991 22694.090476 18516.816299 18426.303389 9964.807044 12646.158796 13818.627309 10382.349836 10199.138161 8916.846950 22359.852520 18889.219896 15856.055903 20119.245939 18134.412234 16246.469766 12330.395620 11085.289958 12307.971533 8308.550249 6660.745095 21604.255356 13059.305192 19325.157783 14168.887827 16842.184881 15648.515750 8831.783655 8901.327273 10236.720951 7668.222447 7121.456661 22836.887237 20989.198365 20636.405321 16280.675542 18366.617806 11787.418257 10668.264715 10201.975323 8308.258622 10507.405913 6201.382595 21780.931652 18522.597740 18009.656967 17787.806016 16942.731834 11049.396336 14624.770612 8095.719538 7274.235051 8723.109683 4514.642042 23169.823767 21516.382186 20492.018958 18800.709222 15034.158166 13630.953748 10534.208138 16556.678093 4813.155687 6510.179378 7597.518585 21317.455846 20032.072694 15722.047294 16939.208243 20795.079826 15291.572506 11352.871823 14363.797938 10994.351438 8071.396008 3810.825014 20712.626986 21317.825126 20230.734107 15587.052573 13936.271522 13359.055387 11994.896728 11637.203974 18312.816984 5615.015997 6064.953951 23187.669628 22668.172700 20715.580528 14325.894667 16318.618220 11322.369777 12642.085133 8785.330769 10607.765184 6765.708817 4637.643271 22311.942136 18888.741926 20662.815651 17564.663953 9297.176763 10196.667147 9480.133234 8210.379072 8935.925267 9571.597412 2801.653068 22047.661793 20310.557167 19474.560079 20534.173753 17185.026268 13115.669859 9879.162275 9811.280902 11403.887302 4720.531451 5996.466690 19724.939167 19685.055230 17653.711733 14874.701705 14836.900585 13822.914097 15327.723626 8755.381818 6512.299466 5658.525569 6413.522698 19539.587322 20806.593009 17568.093891 15257.007258 18031.771193 11147.282616 12727.085434 11890.119918 9949.314785 7107.938947 6923.050328 17357.455907 20586.511619 17801.039568 17639.031090 13802.489355 13576.914221 7636.292419 8802.591670 7439.368015 6730.810424 7759.208395 23289.055155 22838.168525 18206.442778 10386.420766 15962.331704 12781.250850 9478.386820 13857.352496 7052.307586 9836.030447 2540.017254 20116.168208 19712.738760 19498.496119 7029.635687 9829.812026 8359.273964 6719.784220 11323.052322 5275.112105 10655.709246 3531.343984 19550.533982 15815.480835 13029.001934 18268.139184 12106.840164 13273.866790 13946.400664 3715.339629 8689.403533 7173.985112 5592.581149 22063.208454 19615.231271 18559.076775 18324.711403 13782.406444 10995.268941 6857.450513 15670.702921 8974.134026 3054.637889 3702.494617 19644.296783 18900.741797 19487.053860 16798.149594 9062.952148 15708.107171 15452.421719 6875.447152 11581.974010 3621.663003 5125.575652 19206.013306 19106.084128 19927.307096 16284.467638 13307.079705 12200.363059 16713.408452 11840.447709 9875.885751 5350.401662 3814.101088 16554.342887 14692.855509 21419.399078 18830.630670 11758.142179 14243.174275 11296.466760 13064.430116 9183.069863 5850.846791 5050.174354 19835.439169 19353.079825 16638.608879 18577.503900 18858.498522 14286.140756 13283.518082 12561.619478 9086.317178 5783.268243 5045.114406 21303.709534 20320.652094 20491.832705 17210.844037 15760.272382 14950.383576 11812.038009 8773.596733 12308.488402 5051.979463 6839.706231 21468.119003 18630.829756 18411.101283 18334.003436 18443.821477 15392.339748 8175.202841 11344.843091 5809.679374 5603.555839 5586.744430 19350.107767 20806.578174 20732.122469 15750.117557 13128.864428 8032.310000 10007.336369 7616.166025 6265.240360 4171.627207 4452.895077 19568.157228 15049.351392 20696.751543 13392.618095 12695.171313 9462.368590 7662.188340 5726.803453 6184.304768 4388.795680 4567.819340 17322.990096 18204.258933 18175.980953 13424.831015 8448.856181 10004.919374 11366.924649 6858.674864 5879.677975 5469.763493 3690.548800 19269.581204 18032.608094 16460.596508 7393.660250 14675.807112 10422.893907 12338.017327 7949.594976 7784.834891 5663.527419 4832.687873 18966.791869 16757.427479 17029.270498 16145.293802 12253.359221 12656.132357 11488.451360 15850.789960 6993.985915 4517.362522 5591.995864 16803.372520 18012.683992 16756.639407 16640.276622 14050.366369 11807.113236 12028.862563 9890.073487 8165.744738 5176.215882 8196.667369 18787.823742 16541.382358 17978.564438 16828.591265 13372.462792 12958.501210 8028.078855 4889.161555 6739.794828 7915.009733 2629.087201 18553.628536 18576.547300 16818.575430 13616.106996 14589.833894 9462.808870 5835.111096 6512.154255 9102.157070 7588.322791 5149.851494 19310.609088 18575.984996 17013.924977 15004.387383 13466.235711 12410.452305 17052.680411 6740.935814 6797.916339 5721.616058 6031.672751 18092.036280 18167.645960 16956.191754 14564.119100 14906.064408 13343.321513 11802.468801 11047.250967 6822.808449 6082.771513 2699.817152 19231.476782 18062.804558 19250.609460 16495.777053 15594.242347 14358.258024 11851.527109 7645.108191 9101.083655 6824.645421 5334.275718 18542.618948 18979.272665 16793.927568 13918.832834 8700.596143 14373.053256 14215.722742 8181.090095 8885.423439 5530.718944 5118.343629 18391.307335 17818.705432 14655.254348 15283.139390 13014.141561 16515.374779 11465.174270 10094.764488 4403.192386 7627.669885 4064.750644 18952.269495 17084.589575 15462.028565 17562.478385 14653.907884 10668.925970 10783.539120 10700.269432 7289.558490 8439.565153 3432.856163 18468.144413 17874.412521 12948.051286 14850.048336 13971.588445 13876.809671 14862.318869 8701.054368 12403.872563 6688.519685 5991.453267 18325.777529 18803.872301 16306.087872 18607.280911 9402.558320 12455.574486 12388.483528 7527.707676 7392.651730 8706.783424 4681.615558 18334.617016 18114.071249 16539.679428 15964.868243 11478.914971 15593.050827 10166.997888 11658.065386 8517.511142 8016.235186 4888.222777 17780.422763 14548.906922 14925.100656 16459.397861 15671.613426 12051.878264 12294.245351 9790.556994 10101.248341 10037.547445 4707.606168 16137.967148 16744.566982 17149.562758 17128.315447 11248.861135 14922.439817 13917.387861 8173.302072 15703.678327 5042.895300 5982.822477 15320.793718 16647.744984 13774.856613 16564.176795 15021.929687 16186.551730 10706.843352 8860.594036 7196.380095 6052.418399 2886.417540 17296.342461 16834.701804 16281.690216 16544.843235 15194.229385 12240.664409 11148.921743 10760.286202 7709.230252 8039.467451 4593.609033 15835.088716 17675.156269 14395.069627 16914.250485 14659.728304 10969.978262 12940.318473 5118.183397 9717.297637 9737.456843 3182.554284 16623.820213 17091.988372 16462.546132 16446.566628 14477.915066 13813.952967 10391.832429 9880.832961 6873.641670 8434.524617 2463.668180 15431.157846 15267.997026 16052.793319 16516.784061 15891.453835 11876.524021 9994.642170 9411.564674 5097.301192 8119.717630 4453.914313 17309.159165 15122.694890 15943.776718 13146.913429 16269.640020 13459.666847 14816.881755 11819.882395 8271.888865 5609.623341 6417.104592 17220.594810 16775.749747 16497.145495 15793.234601 12288.171652 9805.196347 13143.503408 8719.016256 11328.992300 4114.571288 11272.188532 16519.310462 15268.981412 16617.112289 14860.698122 11025.517992 13889.038688 11071.758389 12985.864609 10969.969659 6095.722619 3344.073337 16258.931785 18532.039243 16739.451676 15927.782399 15983.455530 15716.337916 13684.474242 11703.745710 9361.706126 10982.082236 5022.901589 16900.159163 16272.812971 16710.425219 15783.051828 15633.216832 13037.146471 10388.441380 10048.535452 10539.259754 10515.485932 2939.369919 15704.318503 14797.805264 15029.281858 15124.059769 14033.822127 13559.863525 10071.000211 12509.579927 9272.178793 9308.469396 5755.157219 15266.904675 14757.529987 16386.158701 15802.424073 14142.018410 10960.625555 12804.069313 7582.869609 10336.342560 8478.286296 6809.191100 16040.750044 15032.498949 14142.731624 14629.974281 15552.680408 12222.589059 11613.080230 9804.298317 6115.111342 5569.649297 7670.683269 14809.356926 15064.873595 15162.408399 15431.588501 14347.062483 12393.552425 11180.202447 8427.800863 6703.434904 5772.951492 5731.881218 16630.627611 16528.749806 14439.301137 14601.781852 12090.842667 12737.377913 10228.526768 8697.219582 6687.381780 4757.452098 6370.052809 16925.758896 15720.788262 13421.270873 13785.350706 11960.706682 5618.202175 11030.278353 13226.328796 9547.335602 8581.223956 3437.433465 15040.141169 15978.299527 12823.134841 12832.437368 8517.478962 11733.702780 11623.624284 10252.193783 8186.773250 4118.496477 5148.132967 16031.179662 15050.387243 14831.789461 16231.731311 9343.847152 12418.047574 6297.998391 10280.497049 9126.177339 9646.974693 5084.884220 16136.467319 16649.299590 11117.997482 17063.038887 8645.470685 11290.952341 9301.151828 11111.624049 8874.148267 6942.212130 8098.186743 16499.590513 16512.548321 16622.037990 16283.675502 16551.445721 10013.600507 11924.586619 9049.723798 7363.939524 7718.240395 4598.841901 15532.441091 16304.063814 13037.194578 14486.986032 12713.104768 11419.419009 6813.526928 13168.754546 7595.200985 8718.526124 9445.233443 14906.714158 13721.532287 9946.065429 12236.167721 9749.678526 13515.974864 11029.419994 8623.983165 3770.581353 4340.681977 8164.038743 15764.312527 15694.432078 15353.838608 11733.582187 12472.952136 8566.783607 8483.715663 7534.335344 7112.631150 5982.735050 5909.072611 14945.902306 13232.693652 13981.180199 9075.421731 10203.930029 9352.475114 13095.090448 7950.701026 6643.312667 6386.500009 6217.181833 15138.567366 14871.270793 13984.339527 11779.720296 10710.571803 6724.854862 6790.591637 8786.163322 6831.744839 6394.441401 9131.190654 13409.687966 9783.570246 13325.023128 13208.352059 12606.063028 8871.497603 13407.445870 4923.499751 6628.211051 6238.722872 2593.127410 14652.453116 13717.443741 14128.534918 13894.705862 11507.094558 14480.957096 11687.204281 4758.807808 6815.203753 7466.286951 5839.556506 14643.269824 14660.578702 15526.287434 9956.549401 12842.002305 10821.558612 11244.572642 14650.737067 6651.165732 6227.142963 5429.370954 20667.605453 23484.609334 22638.166538 20895.250725 14095.842561 19349.935625 18468.585799 20960.663143 21807.066011 16355.190737 13889.688517 9476.867324 5244.417383 8895.165821 21940.740163 12622.031503 23354.314865 20703.516830 8840.826360 25526.528162 13855.159593 9511.963441 18896.831821 9501.440733 11345.017798 7491.710606 3509.614173 12623.898011 11809.729881 15961.262136 14719.690795 8511.463436 7969.688300 10923.413415 12943.785523 14240.613851 17241.485278 8439.154917 5587.672711 5540.046827 7334.381074 3805.864716 15542.436984 13917.506188 13428.858563 14233.896237 18446.083515 16707.498602 14858.208863 15502.699597 7019.327001 19181.037588 13012.863339 10223.224876 6191.241058 6512.957085 16608.902563 22324.625661 15685.133788 11211.167668 21077.877735 15236.056933 16578.442695 12622.610919 14602.789067 8372.800237 10144.649538 10867.167751 6566.114324 3266.294586 14557.254270 20137.117168 13492.620936 22307.292689 17828.120472 21731.653238 22160.782973 11519.005919 10782.358979 10498.975631 8724.744784 8999.100209 15547.306621 6368.252125 24860.822625 7713.911453 13935.953871 16847.835710 5853.752102 20813.097746 17362.508326 20691.839662 13588.254353 11581.744955 9197.673854 8085.654888 4713.163614 6291.546068 10241.033803 10725.680833 10143.119039 19256.269047 13367.921456 15593.907047 9993.045731 9106.577975 6624.154966 8369.450206 13858.234848 6559.987463 6607.657810 3329.876330 16800.384777 19937.384701 10552.717436 7454.261674 12528.852503 8932.786568 9312.176681 7618.917492 7167.205967 12901.061084 10879.850980 8023.880284 8435.885492 4105.636781 9748.662667 13803.331320 13510.291182 8245.013456 11108.932527 10684.943579 12652.134698 12453.820890 12173.459718 6997.465211 6521.177155 4544.196260 9223.014288 8435.308116 8594.325884 9488.315244 21021.274229 17320.229532 6106.910861 7251.814899 7564.574357 17937.289745 7802.316982 11948.692396 16092.185245 10974.262834 6442.331556 4358.970209 10854.380589 5548.799734 11890.216596 22174.749136 9580.935762 15111.962660 6356.112385 12080.447932 7037.684975 9324.524005 10975.819504 20923.588059 5490.317290 4817.392322 7987.468365 3956.878217 2956.641639 12385.902975 6375.861508 4575.150453 10923.028195 17249.232622 17539.613141 9695.548791 6021.685223 6448.343765 5481.128924 4427.455026 6307.006729 8250.562130 5942.966142 5035.398589 8564.978216 3703.706891 7866.092888 12897.575943 6957.222129 14258.093617 8644.843561 4506.369523 4938.655856 6371.968929 3074.577250 7691.483276 2028.591375 3294.338342 -524.130605 15630.187991 9466.735724 5405.767454 2832.770240 3371.398076 7355.665195 4190.596632 4401.796477 2098.107830
</DataArray>
<DataArray type="Float64" Name="Velocity" NumberOfComponents="3" format="ascii">