<VTKFile type="PolyData">
<PolyData>
<Piece NumberOfPoints="1945" NumberOfVerts="1945" NumberOfLines="0" NumberOfStrips="0" NumberOfPolys="0">
<PointData>
<DataArray type="Float64" Name="Pressure" format="ascii">
 17039.568595 14021.888311 8779.771255 5215.464359 4948.018399 2559.779580 10386.884369 9826.266124 12553.925104 10651.117769 12635.009426 10814.838611 13176.265947 11812.676036 13570.892983 11988.439037 14533.897078 13250.242197 16017.515628 15994.688403 16973.076178 16356.949391 16974.373328 16649.559991 14963.867606 13401.046017 16505.412943 16401.898120 15138.876601 12568.751594 16549.642232 13312.203248 20412.913473 17605.734510 20843.827650 17655.862722 19920.387509 18517.064656 22945.438719 21039.426009 22476.857964 23231.988427 19212.346202 18025.179955 25148.165488 24236.705267 23609.830229 22267.238496 24234.681753 19909.888637 30511.023395 29435.819874 30757.929852 29621.104821 31486.828319 30218.287805 30227.158070 28366.071648 30923.697656 29128.410999 30598.122210 28750.313558 29932.086792 27846.653490 29933.149272 28045.973561 30601.716618 29892.827186 30123.694597 28245.980000 30418.334474 27744.726465 30996.810579 28410.967055 31938.339220 29324.844400 32316.148713 30708.639878 32277.588117 30550.698170 32264.418177 31322.987184 31838.671557 31249.384773 31674.067385 30139.005169 31915.128259 30547.551399 32264.747316 30700.448212 32460.853681 30000.076651 32669.908733 29665.043431 32929.708631 29867.364338 33058.202597 30035.403513 32980.227717 29979.143320 32712.800185 29681.475760 32325.303309 29171.138545 31907.227733 28548.431052 31502.264398 27854.575954 31184.806455 27197.775720 30972.582807 26598.303738 30878.697924 26097.840133 30902.215088 25736.441734 31036.963587 25545.688766 31266.425797 25552.963419 31576.220734 25792.576953 31935.618032 26252.020871 32309.333316 26881.845473 32666.465973 27629.164849 32981.186903 28415.487589 33258.499133 29205.284063 33473.627942 29953.279502 33624.152606 30663.342591 33719.888473 31345.946027 33724.955055 31922.112447 33633.423773 32407.272830 33424.079667 32658.174828 33074.320721 32761.785574 32634.922069 32700.549146 32099.321596 32419.799664 31492.551209 31959.848099 30846.376363 31437.931320 30174.638155 30849.961842 29535.335648 30312.177846 28889.401384 29777.985432 28317.241200 29351.591266 27809.768058 29018.729149 27379.472357 28754.225460 27053.699101 28645.746327 26849.641004 28773.897670 26748.559937 28683.948844 26762.563632 29005.160602 26864.126171 29081.352834 26983.070568 29373.270937 27119.820410 29074.104899 27555.675300 29980.859405 27570.347620 29623.410449 27911.469406 30277.107074 28290.292686 30508.481614 29306.264797 31163.994387 30468.943265 31801.520305 32697.229368 34844.286291 31213.011151 34286.264415 32168.452439 35831.282495 32890.959528 37404.128057 31517.589103 35997.479930 33484.469284 36328.591655 31025.778139 34350.696139 27428.194989 36157.154397 24253.120882 31541.830368 12819.103508 11295.562684 9376.466144 8562.030221 9767.795162 8727.025779 7908.163197 8214.601470 7934.282769 7278.684000 6133.542209 5404.643706 4489.383741 2499.833891 354.563392 -364.377343 1037.920222 -4092.025523 -7563.518919 -4877.179126 -4702.072140 -8083.560567 -8299.974269 -7040.209251 -6166.978231 -5323.988029 -4513.053780 -3761.424932 -3089.514395 -2505.576476 -2008.587061 -1592.177415 -1247.689261 -965.997783 -738.372290 -556.774557 -413.907926 -303.196211 -218.765712 -155.442915 -108.755894 -74.924348 -50.829312 -33.961274 -22.351179 -14.491561 -9.255311 -5.818316 -3.590436 -2.159219 -1.262567 7817.649023 7316.451268 6023.968387 5511.724223 7651.786352 5644.988975 3918.881181 7071.110941 5954.956737 5329.315052 4290.936874 4113.866480 4219.693407 2188.171500 -893.925495 -5261.364642 -954.919784 -5480.445033 -9882.755122 -4459.069872 -3867.825825 -8420.926269 -8845.258094 -6990.122396 -6151.810590 -5327.749067 -4525.126275 -3778.087685 -3108.012570 -2523.925750 -2025.615305 -1607.360455 -1260.909819 -977.342070 -748.001811 -564.863656 -420.622639 -308.692485 -223.193037 -158.946789 -111.477423 -76.997636 -52.378032 -35.095637 -23.165997 -15.065633 -9.651961 -6.086651 -3.766181 -2.259117 -1.238916 38829.147704 33672.611665 28694.461498 31920.183851 31497.773488 24830.415974 16596.573818 13176.320701 10222.228710 6526.016660 737.134466 -701.882811 -271.052578 40.601383 223.032488 274.190503 244.792770 183.508269 121.076245 71.299641 37.100301 16.182050 4.716113 -0.818729 -3.010385 -3.510888 -3.263682 -2.754918 -2.208983 -1.715426 -1.301175 -0.967199 -0.705165 -0.504220 -0.353481 -0.242906 -0.163619 -0.108055 -0.069990 -0.044486 -0.027763 -0.017023 -0.010261 -0.006084 -0.003551 -0.002041 -0.001156 -0.000645 -0.000354 -0.000189 -0.000092 33603.457051 27502.679493 24238.674261 23969.619033 21222.626318 16211.610692 11691.071809 8704.691313 6140.130900 2475.126759 286.267549 -300.629044 -217.565575 31.456980 200.511231 257.041382 236.374104 181.655000 122.695765 74.068646 39.737142 18.190910 6.046732 -0.029567 -2.588322 -3.309882 -3.182862 -2.733140 -2.212947 -1.728701 -1.316436 -0.981538 -0.717613 -0.514581 -0.361850 -0.249484 -0.168653 -0.111804 -0.072708 -0.046405 -0.029084 -0.017910 -0.010843 -0.006458 -0.003786 -0.002186 -0.001244 -0.000697 -0.000384 -0.000207 -0.000107 -0.772959 -0.565874 -0.702141 -0.521561 -0.475906 -0.393263 -0.260920 -0.254747 -0.150426 -0.153033 -0.087067 -0.089693 -0.050114 -0.051852 -0.028605 -0.029662 -0.016183 -0.016808 -0.009075 -0.009438 -0.005045 -0.005254 -0.002781 -0.002900 -0.001520 -0.001587 -0.000824 -0.000862 -0.000443 -0.000464 -0.000237 -0.000248 -0.000125 -0.000132 -0.000066 -0.000069 -0.000034 -0.000036 -0.000018 -0.000019 -0.000009 -0.000010 -0.000005 -0.000005 -0.000002 -0.000003 -0.000001 -0.000001 -0.000001 -0.000001 -0.000000 -0.000000 -0.000000 -0.000000 -0.000000 -0.000000 -0.000000 -0.000000 -0.000000 -0.000000 -0.000000 -0.000000 -0.000000 -0.000000 -0.000000 -0.000000 -0.000000 -0.000000 -0.000000 -0.000000 -0.000000 -0.000000 -0.000000 -0.000000 -0.000000 -0.000000 -0.000000 -0.000000 -0.000000 -0.000000 -0.000000 -0.000000 -0.000000 -0.000000 -0.000000 -0.000000 -0.000000 -0.000000 -0.000000 -0.000000 -0.000000 -0.000000 -0.000000 -0.000000 -0.000000 -0.000000 -0.000000 -0.000000 -0.000000 -0.000000 -0.000000 -0.000000 -0.000000 -0.000000 -0.000000 -0.000000 -0.000000 -0.000000 -0.000000 -0.000000 -0.000000 -0.000000 -0.000000 -0.000000 -0.000000 -0.000000 -0.000000 -0.000000 -0.000000 -0.000000 -0.000000 -0.000000 -0.000000 -0.000000 -0.000000 -0.000000 -0.000000 -0.000000 -0.000000 -0.000000 -0.000000 -0.000000 -0.000000 -0.000000 -0.000000 -0.000000 -0.000000 -0.000000 -0.000000 -0.000000 -0.000000 -0.000000 -0.000000 -0.000000 -0.000000 -0.000000 -0.000000 -0.000000 -0.000000 -0.000000 -0.000000 -0.000000 -0.000000 -0.000000 -0.000000 -0.000000 -0.000000 -0.000000 -0.000000 -0.000000 -0.000000 -0.000000 -0.000000 -0.000000 -0.000000 -0.000000 -0.000000 -0.000000 -0.000000 -0.000000 -0.000000 -0.000000 -0.000000 -0.000000 -0.000000 -0.000000 -0.000000 -0.000000 -0.000000 -0.000000 -0.000000 -0.000000 -0.000000 -0.000000 -0.000000 -0.000000 -0.000000 -0.000000 -0.000000 -0.000000 -0.000000 -0.000000 -0.000000 -0.000000 -0.000000 -0.000000 -0.000001 -0.000001 -0.000002 -0.000002 -0.000004 -0.000004 -0.000010 -0.000010 -0.000026 -0.000019 -0.000047 -0.000031 -0.000058 -0.000039 5509.594379 9812.899744 6690.512138 6227.078616 7867.085025 6795.238999 7110.960310 6747.057580 5013.112406 5172.523319 7190.739682 10851.717462 8012.259131 9511.007769 7116.333298 7415.215373 8674.550217 8037.141398 7418.878577 6999.756998 7130.767309 5605.363389 11158.340197 8946.449549 11198.335355 8494.848576 9933.281839 8126.297662 7694.224571 8623.477810 6318.861777 6590.169097 4456.047442 12010.742838 13614.610826 11513.534360 13186.791528 10967.545402 7897.751725 8169.248159 7253.848463 5880.826503 4765.749605 3180.416045 15922.978649 11782.108216 12109.167586 9693.395295 12017.258706 10062.972804 6414.729059 6818.362283 6518.449282 5528.636084 11239.334492 12146.972084 14856.629168 11427.067728 11843.840705 14015.171116 11186.499590 8268.730209 8501.891237 8331.816927 7120.732806 4814.786842 13964.353936 12102.537399 11652.811739 12965.368078 9069.920507 12848.268961 9130.670926 9818.426438 7653.336653 7333.612102 7933.065633 15374.980840 16373.121242 14726.376932 12904.449775 10352.095905 9165.018749 9732.946384 8024.213534 9753.604078 8953.030940 8781.573807 13646.049991 13484.337738 14263.272073 11536.925518 13530.116048 13325.766018 15420.142609 12321.422273 12142.153591 10517.033497 8913.261052 18457.235943 16338.887459 18581.909207 15706.824742 15760.068076 13227.498310 13455.968193 12000.128289 11035.991309 11643.417735 11160.532910 18502.232001 19527.724090 19172.029196 19061.038405 19342.016834 16979.390073 17365.831304 16117.173231 14040.296530 12616.651030 11897.258559 22610.460694 22830.045713 19203.189209 17516.605609 15587.443303 17664.195028 15891.368829 12664.690976 12847.948957 13796.016832 9986.063477 22351.798121 19170.575055 19107.743674 19554.561557 20195.684112 16107.161019 16899.253864 13407.640157 14915.759509 14006.196993 13036.526438 24446.800315 24370.926751 19506.282724 18696.425143 17957.987592 19712.678236 17024.786443 16098.690493 15826.692901 11179.803399 4437.132800 22174.372425 23020.196452 22328.476728 20958.440471 20752.531233 16287.802206 15703.518992 14223.273682 13639.927859 12440.105534 3966.375114 26451.661449 23761.228242 22201.354020 21332.664315 18968.964166 18965.250285 15381.775967 16384.283015 11544.643893 3372.753765 3993.655229 23154.649887 23157.317693 24361.583214 19978.735464 21073.798431 20353.567295 15973.251677 17463.851375 4668.741634 1078.069202 15067.009498 25270.802154 26882.402866 21794.503046 24514.421112 19107.986525 17327.727596 17026.808505 10895.631267 9387.203192 2241.434344 10420.394993 25691.878446 27860.534651 20640.732223 25148.081492 19846.023086 19618.515148 15585.332779 13990.219127 3392.913911 2897.147400 9632.007563 27746.461991 26143.760065 23937.249967 23065.012762 17324.076640 19870.586433 15841.896313 8574.441501 3209.741241 -331.271387 7423.629610 28181.927545 25409.088842 25150.266445 21419.207433 19598.541203 20177.798316 17799.520191 5490.885658 1570.532915 -191.204555 3018.155432 27218.552914 26712.286433 23568.343056 23282.123913 20475.651167 16372.091202 11684.539144 4392.562503 4092.485650 5254.655074 -1360.777436 27515.275354 28230.877824 22281.430592 24474.319754 21464.573853 15660.673647 14835.450492 11863.089737 4519.138832 4526.409315 550.882787 27619.104844 28462.612330 23106.002426 24203.892215 20847.045004 20564.853323 11945.243190 10862.884287 3901.098489 3665.151806 14899.308638 27563.539396 28452.687278 24139.995331 23554.017180 21682.458517 20972.341681 20743.050312 13435.470885 2060.922127 3995.183372 1910.955459 28652.616280 29504.529524 25066.802787 23285.261466 22805.423113 19166.198635 20145.720036 8114.694998 14065.127632 5255.707795 219.676527 28770.794649 29771.458128 26233.043599 23148.688637 23640.681272 18624.702498 18295.917788 12952.083748 7245.540136 5117.469014 3362.677710 29380.975769 29154.581139 27479.556073 23217.486501 23977.251362 19265.697136 17546.472257 15911.220668 6061.526217 2201.329349 -1297.263598 30067.523072 29353.416849 27965.128991 24193.762837 23061.472371 20472.830221 15960.457906 12128.417696 9374.063938 10049.428608 3121.756899 31014.661243 30155.324796 27881.306653 25476.249926 22303.198515 20634.689083 16817.131495 13001.882389 7816.922862 5660.057427 -33.591086 30920.387325 30704.535624 27509.434528 26369.342584 21904.957295 20789.495387 17941.561302 12289.248086 8214.251237 7340.138429 5213.468730 30532.547234 30765.530086 27323.285071 26897.336198 22177.941415 20012.658327 19181.821138 8954.629652 11411.019005 10644.908851 -2092.053652 31340.379921 31289.239390 27365.434447 26760.272133 23067.876275 18890.769269 19764.291125 8025.614822 13857.316496 10986.423859 5310.444690 32207.731147 31588.030013 28044.738516 25946.812230 24124.095076 18804.777789 19397.278222 11156.224219 13685.044105 9823.227822 1699.351170 31448.275137 31172.222835 28602.106375 25698.459418 24247.524560 19820.748025 18049.084657 15044.077680 11210.199580 11525.660012 734.065791 31987.579736 30893.571669 28889.434414 25945.781570 24062.931950 20682.491109 16505.587467 17764.145007 7449.903773 14161.889847 10349.498545 32771.688163 31221.736435 28940.789361 26231.628147 23658.505865 21344.108949 16022.851134 20225.429427 4615.914142 16139.849541 5680.564643 32945.719567 31166.795492 28897.158948 26494.258991 23456.505481 21786.556510 15882.325586 20074.002821 4499.605115 18836.174612 18539.576842 32065.710434 30721.658202 28753.065696 26702.650251 23397.579869 21787.132755 16385.186713 19072.121875 6563.391236 19717.142224 21026.190753 32013.113139 30752.026828 28634.964894 26676.111890 23316.224538 21533.137294 16904.609623 17628.969669 9235.760060 15417.099416 22503.009282 32711.382124 30769.133252 28500.294038 26550.920860 23210.905024 21247.753564 17257.651805 16227.933377 11067.380406 10757.174683 23213.684477 32279.058570 30716.865028 28245.743663 26391.824085 23089.983547 21001.305476 17413.557789 15148.294452 12149.971770 8020.094160 23076.593817 31163.243169 30364.176732 27879.770094 26150.128198 22853.849058 20658.677129 17257.120874 14191.825273 12545.289488 6210.163397 22330.576265 30242.420901 30044.335098 27487.613295 25830.217426 22482.393996 20168.329035 16896.254633 13322.509670 12279.964157 5046.342852 20366.538586 29867.364501 29735.966232 27113.670761 25395.058078 22077.956705 19680.147943 16525.926156 12617.309036 11604.919647 4593.089586 17081.559410 29475.401652 29414.241077 26804.482766 24863.979825 21758.766984 18975.294577 16117.718712 11971.975313 10684.286871 4519.828685 13054.502404 29032.911034 29103.917838 26506.510881 24330.297037 21642.415758 18495.437378 15902.950741 11469.133967 9826.345619 4578.089594 9464.700378 28586.637857 28765.640505 26189.365630 23872.532164 21635.931704 18038.374309 15599.659084 11261.635462 9153.635689 4737.964141 6875.167351 28087.321216 28386.477950 25903.988984 23495.562942 21570.203601 17586.946176 15531.174296 10935.490869 8505.024676 5063.341001 5108.879323 27620.326116 27916.644674 25599.983961 23130.558668 21344.908070 17148.076430 15405.500152 10830.679211 8225.567373 5382.726885 4129.871288 27156.444582 27405.560815 25255.932698 22739.261434 21065.914842 16820.417545 15073.275481 10915.818197 8024.259993 5720.377965 3705.832993 26780.405326 26949.384438 24928.724468 22342.785000 20830.808149 16671.703274 14967.601356 11458.712058 7893.454906 5990.740324 3535.698861 26500.059121 26603.473553 24690.118917 22032.323310 20636.527343 16715.706599 14932.873779 11828.653660 7873.727979 6154.222261 3434.134002 26268.481320 26301.947743 24518.585269 21867.177377 20480.775930 16862.565593 14864.839935 12064.364461 7866.720941 6090.620315 3397.849695 26096.205258 26071.912858 24365.043264 21796.671913 20366.087835 17048.021101 14756.142195 12195.696030 7934.065945 5972.608945 3325.245190 25988.103158 25982.410726 24267.613133 21778.349846 20243.908680 17188.330349 14551.692531 12092.507310 7815.151193 5634.269618 3167.992786 25930.362494 25959.467780 24246.167411 21806.446316 20082.590874 17219.037328 14248.778475 11801.860864 7581.764681 5195.591543 2979.107101 26019.137582 26041.701430 24303.792486 21895.535799 19909.182913 17151.474411 13898.398907 11401.652067 7293.036955 4739.221621 2802.749960 26285.961610 26250.038627 24455.368776 22045.494588 19776.334443 17065.355210 13596.767673 11020.094019 7037.682701 4352.950751 2692.326269 26744.243926 26597.109174 24719.297254 22305.504244 19761.252910 17059.474031 13449.872469 10778.658750 6909.771233 4117.250912 2683.532559 27381.077435 27094.231292 25117.207093 22722.997914 19933.382669 17206.659631 13529.557890 10748.529861 6961.127683 4067.291266 2778.162112 28166.524142 27750.166296 25652.405369 23274.346703 20311.692349 17550.107751 13846.236291 10939.137361 7190.616036 4189.022169 2952.247872 29002.410026 28504.515504 26303.423019 23936.633220 20870.193692 18066.050251 14344.854825 11303.684707 7553.505480 4433.241841 3168.070145 29823.993323 29286.799069 27015.958088 24652.116146 21538.481226 18678.111918 14940.736585 11762.012935 7980.303879 4736.930725 3387.044937 30596.494920 30044.833482 27727.351792 25347.457573 22225.885518 19298.455067 15544.277592 12229.102729 8400.255744 5043.405248 3581.413811 31304.657637 30712.717619 28383.379286 25969.840926 22852.196021 19850.885586 16080.661850 12641.591527 8763.780495 5314.085335 3737.805773 31909.674918 31243.912533 28962.129272 26485.859015 23361.229698 20294.297760 16511.240209 12965.522653 9048.992487 5533.899385 3852.985487 32395.935382 31664.827498 29448.740379 26876.403360 23734.098002 20614.593473 16830.782911 13198.478521 9253.540748 5703.298942 3930.813095 32813.474848 31964.698066 29791.127160 27145.540517 23994.488655 20816.620887 17046.770556 13353.931366 9389.649103 5826.672750 3976.894869 33091.244101 32106.690000 29978.125776 27301.271810 24144.138774 20916.426534 17175.500074 13442.794925 9470.177413 5911.832775 3993.629608 33227.873555 32151.964845 30037.764305 27341.930789 24184.442914 20928.472052 17224.879102 13474.187701 9500.371291 5961.976840 3983.441452 33206.031596 32040.051240 29936.145026 27255.810360 24124.439976 20857.106208 17194.692683 13447.271580 9482.891009 5974.129439 3948.347351 32954.485048 31770.108149 29687.097162 27049.650767 23959.017845 20699.338755 17085.632697 13358.510743 9418.159029 5950.224687 3890.109640 32548.736386 31394.984423 29339.106782 26750.729623 23706.323790 20466.419712 16900.990780 13210.049824 9303.853451 5890.589346 3812.386834 32095.046464 30930.687806 28891.717885 26346.388456 23361.489408 20165.547680 16649.631513 13014.291862 9152.620991 5801.739124 3721.007731 31562.966144 30448.429548 28430.021400 25932.247929 22985.420331 19836.180961 16358.117979 12784.428159 8976.112138 5693.011795 3623.140151 31045.023912 29854.359004 27911.807470 25474.465117 22568.769022 19490.860892 16054.537122 12546.615077 8795.498213 5579.329443 3526.698250 30616.627779 29433.838107 27506.751054 25092.171403 22188.211152 19164.370024 15759.766866 12322.637546 8628.974228 5472.517060 3443.934078 30227.742500 28930.723169 27072.090523 24702.745273 21838.654742 18892.597709 15508.974754 12130.512682 8486.138143 5381.525233 3375.370352 29964.413739 28621.383264 26810.341028 24435.529334 21535.392115 18644.861291 15285.326472 11977.018459 8378.821207 5324.158989 3330.398658 29746.345671 28269.988367 26553.761542 24212.796374 21337.785005 18504.264402 15142.449899 11862.735482 8290.780647 5269.557066 3303.044499 29702.768661 28091.748880 26406.984479 24038.963541 21137.306945 18342.653720 15001.715143 11779.645204 8246.544459 5259.192526 3299.747558 29747.180994 28021.247716 26376.111025 24003.646868 21084.546630 18308.831962 14942.587472 11726.554845 8181.027526 5207.010223 3292.189672 29650.837149 27850.216553 26262.363269 23834.847813 20961.309052 18216.789368 14865.290145 11677.278927 8197.682228 5247.267402 3301.619079 29902.811620 28111.174337 26434.756468 23957.279384 20999.914286 18221.294407 14871.455080 11666.713428 8105.681658 5152.843575 3312.718232 29718.182562 27822.422609 26265.622602 23831.430119 20954.728598 18194.268621 14818.553716 11680.621798 8233.952607 5263.796523 3295.883250 30120.396621 28366.452617 26658.718331 23979.638967 21098.698740 18310.026978 14967.703934 11680.596108 8089.565499 5196.403616 3376.983238 29781.494199 28190.892825 26491.215634 24079.604092 21164.934974 18256.269652 14923.950381 11935.055292 8383.942328 5289.131615 3324.626690 30711.049886 28785.667227 26819.835464 24331.263133 21421.187914 18831.538820 15258.619511 11719.972615 8323.098289 5341.581156 3602.912759 30124.567777 28958.804354 27261.872628 24731.530423 21697.661920 18354.401124 15660.059904 12429.868973 8756.473903 5497.081356 3356.894151 31120.695695 29480.017280 27207.050684 24578.291686 22429.725792 19417.357873 15185.021796 12291.207919 8139.368542 6122.518266 4022.874581 31029.368028 29980.963200 28323.413574 26087.553243 21822.657879 20108.522650 16694.627630 13543.439393 9792.063003 4319.464238 4435.858828 31349.039568 29877.623286 28287.281743 25951.129957 22802.045012 19406.871324 16003.929567 11942.564914 10474.808763 7162.039077 3729.534937 31370.653373 33384.015104 30241.477877 28613.517439 23232.583644 21861.574141 18298.892428 13305.833577 8441.635719 6268.794368 4949.853722 33249.146639 29285.126324 31053.222021 28167.482839 27379.628684 21275.490790 19487.328781 17687.360866 11569.613599 6456.460516 5450.069059 35619.727813 36278.907381 28692.964095 31250.505720 22844.561740 22479.458133 17446.737932 13548.045119 10036.273408 6418.041610 4866.120306 35660.615556 30964.637709 32669.777618 31985.739613 32015.816812 23168.135586 19612.251114 17848.232820 11941.578705 8595.351329 4371.641657 39412.555560 37219.659683 31697.208957 29575.877469 26273.833435 26524.360584 17916.524574 14917.582327 9111.702911 7406.966165 4357.968132 31230.944380 34236.332347 33996.457921 30630.784293 28902.007872 26352.855579 23038.737614 17529.781212 16788.220910 6783.327479 4411.944849 32659.948034 37152.833727 35951.109839 30158.704883 23568.793872 23504.971277 18748.714168 20778.432603 16000.314558 8889.577278 5422.374173 33357.053506 39908.522440 28840.349932 30155.655213 29226.578731 22818.724455 20839.736642 19626.418132 14675.457349 6743.293814 5772.330512 5546.244178 5083.065133 5620.496470 5120.187695 3703.677794 4386.183686 3969.701552 3262.734385 3241.691341 2111.311357 2626.828966 2605.879039 -3369.751243 -7970.260701 4348.701575 3210.007706 5724.236179 4368.458536 4717.122160 4432.254067 4160.309299 3862.516593 4247.722128 3912.679191 2775.484867 1851.896023 -554.779468 2040.261442 5761.093606 5970.493416 4237.219822 4834.297327 4025.147020 4899.351719 4938.787975 4955.950327 3942.891970 4120.583542 3101.252901 2205.901879 1288.046584 1166.418445 4124.169053 3428.953781 4065.542629 3014.072294 3402.110464 3445.721833 3479.433919 3659.967801 3832.717188 3459.719702 3656.812799 2683.591613 1335.864642 1453.071191 3139.131368 2625.416784 3545.295580 3351.474026 3313.606059 2526.319965 3291.165327 4243.343110 4310.980508 4240.978345 3681.175711 2894.831790 1837.551696 1867.793078 4031.428029 6990.658267 5069.295926 4613.689175 3063.458831 3344.819873 3176.017805 2910.538846 3079.351751 3000.965996 3033.972921 2473.142551 1438.473069 1628.539093 3590.931227 4959.799739 5712.769244 1778.197966 4000.396975 3278.703334 2574.045122 2627.982246 2964.828904 2996.088724 2695.574884 2216.325904 1394.488221 1659.181353 7023.023163 9009.289930 5642.464186 6372.291939 4000.785032 4009.127051 3937.158625 3037.204925 2481.678693 2578.887370 2432.649840 1202.967316 625.960368 1289.672366 9713.290015 9302.649171 9616.649351 4807.240687 6990.261540 3394.908806 4160.329809 2696.583182 2423.527795 2513.105333 1673.565359 301.642684 -122.113354 788.962649 9087.516314 9937.610303 7350.899512 9248.419306 7594.494467 3128.718794 5832.621208 3721.342177 3437.558849 2375.507444 845.186161 -765.074346 -516.244598 333.162106 10613.837098 12851.654700 8338.482287 8209.502776 7772.082983 6482.413933 6069.614656 4608.966432 4104.471782 3071.652155 1829.163214 -481.741225 202.214147 567.410693 12427.329616 10965.788456 10184.369887 10798.793724 7842.508592 5703.565095 3333.418771 5057.896970 4395.939353 3454.329883 2670.331187 -38.491881 41.095392 822.657881 10173.546444 11662.210810 -646.739947 10405.232786 9890.946458 6550.068905 10002.054365 6137.162901 5518.896310 3325.988695 2671.876726 3718.741001 774.740886 1231.275400 -984.010448 3328.537381 5591.545103 7311.334473 1544.485186 -34.537750 7133.871601 5112.020944 3527.956640 5688.030636 5128.291636 5094.185006 1155.939225 710.054330 1193.161223 2801.795581 -3197.883261 3936.429858 5408.650917 525.222886 2623.598216 239.915451 1820.600304 -626.570156 7596.985720 2536.442481 -142.070802 4064.449614
</DataArray>
<DataArray type="Float64" Name="Velocity" NumberOfComponents="3" format="ascii">