<VTKFile type="PolyData">
<PolyData>
<Piece NumberOfPoints="1945" NumberOfVerts="1945" NumberOfLines="0" NumberOfStrips="0" NumberOfPolys="0">
<PointData>
<DataArray type="Float64" Name="Pressure" format="ascii">
 959.116681 1762.977046 2498.283277 4943.515560 4457.798063 8556.579043 5374.413176 9564.156426 5744.365112 10053.673283 5926.372043 10396.834357 6016.214975 10588.331731 6058.826671 10686.758261 6077.778036 10732.304286 6085.817730 10751.915944 6089.074227 10759.915325 6090.334547 10762.998199 6090.803825 10764.132245 6090.972646 10764.533999 6091.031532 10764.671670 6091.051534 10764.717561 6091.058174 10764.732521 6091.060336 10764.737310 6091.061028 10764.738820 6091.061247 10764.739291 6091.061315 10764.739436 6091.061336 10764.739481 6091.061342 10764.739494 6091.061344 10764.739498 6091.061345 10764.739499 6091.061345 10764.739500 6091.061345 10764.739500 6091.061345 10764.739500 6091.061345 10764.739500 6091.061345 10764.739500 6091.061345 10764.739500 6091.061345 10764.739500 6091.061345 10764.739500 6091.061345 10764.739500 6091.061345 10764.739500 6091.061345 10764.739500 6091.061345 10764.739500 6091.061345 10764.739500 6091.061345 10764.739500 6091.061345 10764.739500 6091.061345 10764.739500 6091.061345 10764.739500 6091.061345 10764.739500 6091.061345 10764.739500 6091.061345 10764.739500 6091.061345 10764.739500 6091.061345 10764.739500 6091.061345 10764.739500 6091.061345 10764.739500 6091.061345 10764.739500 6091.061345 10764.739500 6091.061345 10764.739500 6091.061345 10764.739500 6091.061345 10764.739500 6091.061345 10764.739500 6091.061345 10764.739500 6091.061345 10764.739500 6091.061345 10764.739500 6091.061345 10764.739500 6091.061345 10764.739500 6091.061345 10764.739500 6091.061345 10764.739500 6091.061345 10764.739500 6091.061345 10764.739500 6091.061345 10764.739500 6091.061345 10764.739500 6091.061345 10764.739500 6091.061345 10764.739500 6091.061345 10764.739500 6091.061345 10764.739500 6091.061345 10764.739500 6091.061345 10764.739500 6091.061345 10764.739500 6091.061345 10764.739500 6091.061345 10764.739500 6091.061345 10764.739500 6091.061345 10764.739500 6091.061345 10764.739500 6091.061345 10764.739500 6091.061345 10764.739500 6091.061345 10764.739500 6091.061345 10764.739500 6091.061345 10764.739500 6091.061345 10764.739500 6091.061345 10764.739498 6091.061344 10764.739489 6091.061338 10764.739447 6091.061309 10764.739255 6091.061179 10764.738418 6091.060611 10764.734940 6091.058241 10764.721170 6091.048858 10764.669473 6091.013653 10764.486020 6090.888792 10763.872053 6090.472687 10761.944827 6089.172256 10756.313108 6085.356439 10740.983872 6074.996397 10702.314629 6049.546063 10614.567169 5993.039136 10437.294550 5872.709135 10121.976834 5537.329846 9626.146456 4463.721330 8340.667109 2461.136159 4611.326206 1260.877963 1853.640264 2101.469786 1544.243362 932.823494 501.899294 249.652857 120.604296 59.420377 32.602048 21.671559 17.479472 15.960038 15.436692 15.263831 15.207376 15.183608 15.155900 15.081672 14.857093 14.210910 12.571671 9.318085 4.210396 -32.032321 -287.146821 -835.213652 -932.307346 -473.236304 -150.929705 -43.599215 -12.392979 -3.443720 -0.936768 -0.249813 -0.065433 -0.016864 -0.004284 -0.001074 -0.000266 -0.000065 -0.000016 -0.000004 -0.000001 -0.000000 -0.000000 -0.000000 -0.000000 -0.000000 -0.000000 -0.000000 0.000000 -0.000000 5455.107142 3727.988363 2396.320742 1320.180516 700.045786 353.907303 179.476221 99.871947 65.829467 52.268351 47.201447 45.409383 44.806576 44.601240 44.503272 44.373009 44.031265 43.071451 40.510466 34.350783 21.851256 3.428775 -26.737318 -370.402577 -1868.851244 -1927.391615 -561.369104 -184.848742 -61.981738 -19.438425 -5.833154 -1.691550 -0.477166 -0.131516 -0.035533 -0.009434 -0.002467 -0.000636 -0.000162 -0.000041 -0.000010 -0.000003 -0.000001 -0.000000 -0.000000 -0.000000 -0.000000 -0.000000 -0.000000 -0.000000 -0.000000 5244.867517 3513.916425 2236.679976 1225.171522 648.442695 322.248399 149.411372 60.542823 14.819461 -297.492231 -1722.957187 -1716.018543 -384.140933 -93.301777 -26.757197 -7.553348 -2.096772 -0.570872 -0.152538 -0.040051 -0.010349 -0.002636 -0.000662 -0.000165 -0.000040 -0.000010 -0.000002 -0.000001 -0.000000 -0.000000 -0.000000 -0.000000 -0.000000 -0.000000 -0.000000 -0.000000 -0.000000 -0.000000 -0.000000 -0.000000 -0.000000 -0.000000 -0.000000 -0.000000 -0.000000 -0.000000 -0.000000 -0.000000 0.000000 0.000000 0.000000 2001.380099 1508.847225 960.681658 545.885188 287.600636 141.788886 64.585704 18.974289 -39.623912 -181.639893 -452.495769 -490.033512 -262.102200 -105.087591 -36.101216 -11.497823 -3.481460 -1.016064 -0.288031 -0.079710 -0.021612 -0.005756 -0.001509 -0.000390 -0.000100 -0.000025 -0.000006 -0.000002 -0.000000 -0.000000 -0.000000 -0.000000 -0.000000 -0.000000 -0.000000 -0.000000 0.000000 -0.000000 -0.000000 -0.000000 -0.000000 -0.000000 -0.000000 -0.000000 -0.000000 -0.000000 -0.000000 -0.000000 0.000000 0.000000 0.000000 -0.000000 -0.000000 -0.000000 -0.000000 -0.000000 -0.000000 -0.000000 -0.000000 -0.000000 -0.000000 -0.000000 -0.000000 -0.000000 -0.000000 -0.000000 -0.000000 -0.000000 -0.000000 -0.000000 -0.000000 -0.000000 -0.000000 -0.000000 -0.000000 -0.000000 -0.000000 -0.000000 -0.000000 0.000000 0.000000 0.000000 -0.000000 0.000000 -0.000000 0.000000 -0.000000 0.000000 -0.000000 0.000000 -0.000000 0.000000 -0.000000 -0.000000 -0.000000 -0.000000 -0.000000 -0.000000 -0.000000 -0.000000 -0.000000 -0.000000 -0.000000 0.000000 -0.000000 0.000000 -0.000000 0.000000 -0.000000 0.000000 -0.000000 0.000000 -0.000000 0.000000 -0.000000 0.000000 -0.000000 0.000000 -0.000000 0.000000 -0.000000 0.000000 -0.000000 0.000000 -0.000000 0.000000 -0.000000 0.000000 -0.000000 0.000000 -0.000000 0.000000 -0.000000 0.000000 -0.000000 -0.000000 -0.000000 -0.000000 -0.000000 -0.000000 -0.000000 -0.000000 -0.000000 -0.000000 -0.000000 -0.000000 -0.000000 -0.000000 -0.000000 -0.000000 -0.000000 -0.000000 -0.000000 -0.000000 -0.000000 -0.000000 -0.000000 -0.000000 -0.000000 -0.000000 -0.000000 -0.000000 -0.000000 -0.000000 -0.000000 -0.000000 -0.000000 -0.000000 -0.000000 -0.000000 -0.000000 -0.000000 -0.000000 -0.000000 -0.000000 -0.000000 -0.000000 -0.000000 -0.000000 -0.000000 -0.000000 -0.000000 -0.000000 -0.000000 -0.000000 -0.000000 -0.000000 -0.000000 -0.000000 -0.000000 -0.000000 -0.000000 -0.000000 -0.000000 -0.000000 -0.000000 -0.000000 -0.000000 -0.000000 -0.000000 -0.000000 -0.000000 -0.000000 -0.000000 -0.000000 -0.000000 -0.000000 -0.000000 -0.000000 -0.000000 -0.000000 -0.000000 -0.000000 -0.000000 -0.000000 -0.000000 -0.000000 -0.000000 -0.000000 -0.000000 -0.000000 -0.000000 -0.000000 -0.000000 -0.000000 -0.000000 -0.000000 -0.000000 -0.000000 -0.000000 -0.000000 -0.000000 -0.000000 -0.000000 -0.000000 -0.000000 -0.000000 -0.000000 -0.000000 -0.000000 -0.000000 -0.000000 -0.000000 -0.000000 -0.000000 -0.000000 -0.000000 -0.000000 -0.000000 -0.000000 -0.000000 -0.000000 -0.000000 -0.000000 -0.000000 -0.000000 -0.000000 -0.000000 0.000000 -0.000000 0.000000 8107.558670 5030.888262 3799.423824 2180.403043 1208.067094 629.285988 308.208072 154.942078 86.240873 57.559427 46.450461 8143.047704 5026.834207 4217.121154 2400.642861 1376.264140 727.854535 346.330948 160.046040 73.921781 36.947685 22.743192 8913.247451 5820.702538 4738.629240 2692.856156 1574.941876 836.982248 398.772469 183.161610 81.912341 37.921307 20.075080 9398.660002 6187.056160 5002.286336 2891.716069 1708.093072 907.492041 432.636795 196.787997 84.775103 35.722038 15.853787 9646.935473 6395.601075 5188.063650 3029.086238 1792.471758 953.745228 456.395726 207.269946 88.200071 35.806305 14.445506 9789.855440 6528.618276 5300.936355 3106.972900 1841.117474 982.031373 471.295115 214.090582 90.761246 36.303329 14.010134 9859.011980 6594.047633 5356.336152 3146.925085 1867.615662 997.845690 479.710869 218.085759 92.387263 36.741672 13.901065 9889.821720 6624.238538 5382.903995 3166.876922 1881.080263 1005.954542 484.143903 220.295946 93.359315 37.073023 13.928264 9902.953081 6637.599405 5394.912144 3176.021399 1887.335236 1009.821047 486.336870 221.433739 93.887263 37.277317 13.974387 9908.189567 6643.074338 5399.921099 3179.919221 1890.077088 1011.571622 487.361232 221.982690 94.153795 37.389761 14.008743 9910.173732 6645.202745 5401.912132 3181.509184 1891.225813 1012.324653 487.813987 222.233046 94.279971 37.445573 14.027555 9910.897688 6645.998810 5402.672462 3182.130011 1891.684764 1012.633117 488.004391 222.340416 94.333436 37.466430 14.029911 9911.152560 6646.285381 5402.951476 3182.362747 1891.860865 1012.754295 488.079927 222.380388 94.345753 37.449049 13.982112 9911.239648 6646.385345 5403.050673 3182.447266 1891.926178 1012.799599 488.105895 222.385146 94.309242 37.319598 13.799391 9911.268714 6646.419370 5403.085058 3182.477123 1891.949512 1012.814963 488.110300 222.366404 94.198751 36.985751 13.791116 9911.278227 6646.430712 5403.096712 3182.487384 1891.957423 1012.818984 488.106095 222.334144 94.040459 36.474614 13.892216 9911.281291 6646.434427 5403.100583 3182.490809 1891.959902 1012.819285 488.100355 222.308614 93.938471 36.210203 13.969665 9911.282264 6646.435625 5403.101846 3182.491915 1891.960596 1012.818825 488.096328 222.295389 93.899455 36.134960 13.957944 9911.282570 6646.436007 5403.102251 3182.492261 1891.960765 1012.818481 488.094419 222.290132 93.890879 36.120635 13.951301 9911.282665 6646.436128 5403.102379 3182.492367 1891.960801 1012.818327 488.093754 222.288415 93.888433 36.118864 13.951750 9911.282695 6646.436165 5403.102420 3182.492400 1891.960809 1012.818274 488.093574 222.288012 93.887870 36.118516 13.952076 9911.282704 6646.436177 5403.102432 3182.492410 1891.960812 1012.818261 488.093534 222.287943 93.887804 36.118508 13.952210 9911.282706 6646.436181 5403.102436 3182.492414 1891.960814 1012.818260 488.093528 222.287938 93.887810 36.118536 13.952269 9911.282707 6646.436182 5403.102437 3182.492415 1891.960815 1012.818261 488.093530 222.287941 93.887819 36.118551 13.952291 9911.282708 6646.436182 5403.102438 3182.492415 1891.960816 1012.818262 488.093531 222.287944 93.887823 36.118557 13.952299 9911.282708 6646.436182 5403.102438 3182.492416 1891.960816 1012.818262 488.093532 222.287945 93.887825 36.118559 13.952302 9911.282708 6646.436182 5403.102438 3182.492416 1891.960816 1012.818262 488.093532 222.287946 93.887826 36.118560 13.952303 9911.282708 6646.436182 5403.102438 3182.492416 1891.960816 1012.818262 488.093532 222.287946 93.887826 36.118561 13.952303 9911.282708 6646.436182 5403.102438 3182.492416 1891.960816 1012.818262 488.093532 222.287946 93.887826 36.118561 13.952303 9911.282708 6646.436182 5403.102438 3182.492416 1891.960816 1012.818262 488.093532 222.287946 93.887826 36.118561 13.952303 9911.282708 6646.436182 5403.102438 3182.492416 1891.960816 1012.818262 488.093532 222.287946 93.887826 36.118561 13.952303 9911.282708 6646.436182 5403.102438 3182.492416 1891.960816 1012.818262 488.093532 222.287946 93.887826 36.118561 13.952303 9911.282708 6646.436182 5403.102438 3182.492416 1891.960816 1012.818262 488.093532 222.287946 93.887826 36.118561 13.952303 9911.282708 6646.436182 5403.102438 3182.492416 1891.960816 1012.818262 488.093532 222.287946 93.887826 36.118561 13.952303 9911.282708 6646.436182 5403.102438 3182.492416 1891.960816 1012.818262 488.093532 222.287946 93.887826 36.118561 13.952303 9911.282708 6646.436182 5403.102438 3182.492416 1891.960816 1012.818262 488.093532 222.287946 93.887826 36.118561 13.952303 9911.282708 6646.436182 5403.102438 3182.492416 1891.960816 1012.818262 488.093532 222.287946 93.887826 36.118561 13.952303 9911.282708 6646.436182 5403.102438 3182.492416 1891.960816 1012.818262 488.093532 222.287946 93.887826 36.118561 13.952303 9911.282708 6646.436182 5403.102438 3182.492416 1891.960816 1012.818262 488.093532 222.287946 93.887826 36.118561 13.952303 9911.282708 6646.436182 5403.102438 3182.492416 1891.960816 1012.818262 488.093532 222.287946 93.887826 36.118561 13.952303 9911.282708 6646.436182 5403.102438 3182.492416 1891.960816 1012.818262 488.093532 222.287946 93.887826 36.118561 13.952303 9911.282708 6646.436182 5403.102438 3182.492416 1891.960816 1012.818262 488.093532 222.287946 93.887826 36.118561 13.952303 9911.282708 6646.436182 5403.102438 3182.492416 1891.960816 1012.818262 488.093532 222.287946 93.887826 36.118561 13.952303 9911.282708 6646.436182 5403.102438 3182.492416 1891.960816 1012.818262 488.093532 222.287946 93.887826 36.118561 13.952303 9911.282708 6646.436182 5403.102438 3182.492416 1891.960816 1012.818262 488.093532 222.287946 93.887826 36.118561 13.952303 9911.282708 6646.436182 5403.102438 3182.492416 1891.960816 1012.818262 488.093532 222.287946 93.887826 36.118561 13.952303 9911.282708 6646.436182 5403.102438 3182.492416 1891.960816 1012.818262 488.093532 222.287946 93.887826 36.118561 13.952303 9911.282708 6646.436182 5403.102438 3182.492416 1891.960816 1012.818262 488.093532 222.287946 93.887826 36.118561 13.952303 9911.282708 6646.436182 5403.102438 3182.492416 1891.960816 1012.818262 488.093532 222.287946 93.887826 36.118561 13.952303 9911.282708 6646.436182 5403.102438 3182.492416 1891.960816 1012.818262 488.093532 222.287946 93.887826 36.118561 13.952303 9911.282708 6646.436182 5403.102438 3182.492416 1891.960816 1012.818262 488.093532 222.287946 93.887826 36.118561 13.952303 9911.282708 6646.436182 5403.102438 3182.492416 1891.960816 1012.818262 488.093532 222.287946 93.887826 36.118561 13.952303 9911.282708 6646.436182 5403.102438 3182.492416 1891.960816 1012.818262 488.093532 222.287946 93.887826 36.118561 13.952303 9911.282708 6646.436182 5403.102438 3182.492416 1891.960816 1012.818262 488.093532 222.287946 93.887826 36.118561 13.952303 9911.282708 6646.436182 5403.102438 3182.492416 1891.960816 1012.818262 488.093532 222.287946 93.887826 36.118561 13.952303 9911.282708 6646.436182 5403.102438 3182.492416 1891.960816 1012.818262 488.093532 222.287946 93.887826 36.118561 13.952303 9911.282708 6646.436182 5403.102438 3182.492416 1891.960816 1012.818262 488.093532 222.287946 93.887826 36.118561 13.952303 9911.282708 6646.436182 5403.102438 3182.492416 1891.960816 1012.818262 488.093532 222.287946 93.887826 36.118561 13.952303 9911.282708 6646.436182 5403.102438 3182.492416 1891.960816 1012.818262 488.093532 222.287946 93.887826 36.118561 13.952303 9911.282708 6646.436182 5403.102438 3182.492416 1891.960816 1012.818262 488.093532 222.287946 93.887826 36.118561 13.952303 9911.282708 6646.436182 5403.102438 3182.492416 1891.960816 1012.818262 488.093532 222.287946 93.887826 36.118561 13.952303 9911.282708 6646.436182 5403.102438 3182.492416 1891.960816 1012.818262 488.093532 222.287946 93.887826 36.118561 13.952303 9911.282708 6646.436182 5403.102438 3182.492416 1891.960816 1012.818262 488.093532 222.287946 93.887826 36.118561 13.952303 9911.282708 6646.436182 5403.102438 3182.492416 1891.960816 1012.818262 488.093532 222.287946 93.887826 36.118561 13.952303 9911.282708 6646.436182 5403.102438 3182.492416 1891.960816 1012.818262 488.093532 222.287946 93.887826 36.118561 13.952303 9911.282708 6646.436182 5403.102438 3182.492416 1891.960816 1012.818262 488.093532 222.287946 93.887826 36.118561 13.952303 9911.282708 6646.436182 5403.102438 3182.492416 1891.960816 1012.818262 488.093532 222.287946 93.887826 36.118561 13.952303 9911.282708 6646.436182 5403.102438 3182.492416 1891.960816 1012.818262 488.093532 222.287946 93.887826 36.118561 13.952303 9911.282708 6646.436182 5403.102438 3182.492416 1891.960816 1012.818262 488.093532 222.287946 93.887826 36.118561 13.952303 9911.282708 6646.436182 5403.102438 3182.492416 1891.960816 1012.818262 488.093532 222.287946 93.887826 36.118561 13.952303 9911.282708 6646.436182 5403.102438 3182.492416 1891.960816 1012.818262 488.093532 222.287946 93.887826 36.118561 13.952303 9911.282708 6646.436182 5403.102438 3182.492416 1891.960816 1012.818262 488.093532 222.287946 93.887826 36.118561 13.952303 9911.282708 6646.436182 5403.102438 3182.492416 1891.960816 1012.818262 488.093532 222.287946 93.887826 36.118561 13.952303 9911.282708 6646.436182 5403.102438 3182.492416 1891.960816 1012.818262 488.093532 222.287946 93.887826 36.118561 13.952303 9911.282708 6646.436182 5403.102438 3182.492416 1891.960816 1012.818262 488.093532 222.287946 93.887826 36.118561 13.952303 9911.282708 6646.436182 5403.102438 3182.492416 1891.960816 1012.818262 488.093532 222.287946 93.887826 36.118561 13.952303 9911.282708 6646.436182 5403.102438 3182.492416 1891.960816 1012.818262 488.093532 222.287946 93.887826 36.118561 13.952303 9911.282708 6646.436182 5403.102438 3182.492416 1891.960816 1012.818262 488.093532 222.287946 93.887826 36.118561 13.952303 9911.282708 6646.436182 5403.102438 3182.492416 1891.960816 1012.818262 488.093532 222.287946 93.887826 36.118561 13.952303 9911.282708 6646.436182 5403.102438 3182.492416 1891.960816 1012.818262 488.093532 222.287946 93.887826 36.118561 13.952303 9911.282707 6646.436182 5403.102438 3182.492416 1891.960816 1012.818262 488.093532 222.287946 93.887826 36.118561 13.952303 9911.282707 6646.436181 5403.102437 3182.492415 1891.960815 1012.818262 488.093532 222.287945 93.887826 36.118561 13.952303 9911.282702 6646.436176 5403.102431 3182.492410 1891.960811 1012.818259 488.093530 222.287944 93.887825 36.118560 13.952303 9911.282681 6646.436149 5403.102404 3182.492386 1891.960793 1012.818246 488.093521 222.287938 93.887821 36.118557 13.952301 9911.282581 6646.436027 5403.102280 3182.492281 1891.960712 1012.818188 488.093482 222.287912 93.887803 36.118546 13.952294 9911.282134 6646.435486 5403.101738 3182.491824 1891.960364 1012.817944 488.093317 222.287802 93.887728 36.118495 13.952261 9911.280227 6646.433207 5403.099481 3182.489943 1891.958950 1012.816963 488.092664 222.287363 93.887426 36.118291 13.952127 9911.272467 6646.424077 5403.090543 3182.482591 1891.953496 1012.813230 488.090200 222.285712 93.886271 36.117497 13.951591 9911.242466 6646.389349 5403.056979 3182.455363 1891.933599 1012.799812 488.081428 222.279821 93.882092 36.114564 13.949555 9911.132695 6646.264588 5402.938029 3182.360260 1891.865172 1012.754366 488.052004 222.259974 93.867737 36.104263 13.942196 9910.754203 6645.843239 5402.542348 3182.048770 1891.644534 1012.609998 487.959389 222.197229 93.821495 36.070372 13.917169 9909.526190 6644.506889 5401.308744 3181.095074 1890.980919 1012.182759 487.688092 222.012638 93.682345 35.965559 13.836531 9905.799712 6640.552218 5397.719698 3178.371569 1889.123813 1011.010348 486.951050 221.504385 93.284832 35.655620 13.589131 9895.344365 6629.795115 5388.122748 3171.202417 1884.317873 1008.032737 485.093010 220.199309 92.232475 34.821156 12.894926 9868.171386 6602.831781 5364.641653 3154.025396 1872.961122 1001.090197 480.815405 217.207361 89.790951 32.839038 11.092003 9802.779088 6540.023308 5311.172305 3116.199452 1848.579542 986.424573 471.966386 211.011101 84.305558 27.935386 6.357879 9663.711646 6412.541219 5201.937719 3039.848808 1800.997088 958.584771 455.177761 198.355401 71.938313 17.128661 -4.112312 9397.768769 6192.559475 5015.877327 2905.542550 1717.386389 911.303163 426.737946 177.197155 54.397237 5.085634 -23.623645 8880.760283 5773.443060 4709.382844 2693.871167 1580.991938 836.368804 385.814105 152.795609 32.993048 -32.443762 -88.901376 8231.451510 5113.771612 4232.264975 2413.192074 1393.752532 731.945172 332.417406 113.280930 -41.680330 -156.990799 -181.631923 7929.154465 5012.228943 3790.891326 2177.822432 1230.109007 639.923952 294.929730 97.244331 -35.103391 -62.119251 -86.164697 42.803574 41.067804 40.553151 40.329757 40.077767 39.467932 37.841174 33.713534 24.253472 4.668348 -38.342840 -106.427951 -111.485514 -152.164734 17.115945 15.016474 14.317731 14.020771 13.724242 13.060555 11.384286 7.348742 -1.458342 -17.360084 -47.803902 -118.640524 -217.561101 -265.368559 13.922143 11.364871 10.510367 10.165478 9.870069 9.268193 7.816332 4.501961 -2.598053 -15.418477 -31.548034 -43.901525 -53.648863 -97.694394 8.649653 5.760518 4.790165 4.419264 4.156398 3.691264 2.624028 0.329154 -4.176785 -12.437062 -25.267469 -37.098677 -35.827428 -44.385740 6.631190 3.506447 2.454630 2.069603 1.848264 1.529501 0.847304 -0.570579 -3.120905 -7.046271 -12.521319 -18.551504 -19.903025 -21.439819 5.788160 2.503312 1.393898 1.001534 0.816107 0.612870 0.225629 -0.548867 -1.931679 -3.947259 -6.244381 -8.171434 -8.337171 -8.864690 5.430060 2.043639 0.897654 0.501408 0.341153 0.213911 0.010276 -0.365491 -1.010556 -1.956149 -3.032582 -3.829775 -3.772331 -3.776720 5.318364 1.872247 0.704282 0.305551 0.160363 0.077390 -0.025950 -0.199062 -0.476051 -0.861120 -1.292350 -1.611855 -1.589205 -1.538513 5.290782 1.811594 0.631086 0.230672 0.093396 0.033559 -0.018888 -0.095313 -0.210854 -0.362855 -0.523145 -0.634201 -0.619520 -0.592256 5.288115 1.791719 0.604574 0.203170 0.069696 0.020793 -0.008156 -0.040998 -0.086885 -0.145207 -0.204583 -0.243360 -0.235848 -0.222769 5.289296 1.784882 0.594826 0.193254 0.061739 0.017772 -0.001140 -0.015957 -0.033645 -0.054969 -0.076135 -0.089594 -0.086671 -0.081328 5.283256 1.777679 0.588605 0.188351 0.058548 0.017076 0.002388 -0.005346 -0.012365 -0.020018 -0.027314 -0.031823 -0.030759 -0.028835 5.228168 1.738914 0.570130 0.180439 0.055225 0.016265 0.003748 -0.001151 -0.004227 -0.007022 -0.009519 -0.011015 -0.010649 -0.009998 5.126820 1.639598 0.513236 0.158398 0.047734 0.014046 0.003733 0.000294 -0.001249 -0.002312 -0.003158 -0.003647 -0.003535 -0.003371 5.658983 1.756771 0.540619 0.166344 0.050458 0.015076 0.004322 0.000973 -0.000207 -0.000768 -0.001121 -0.001317 -0.001320 -0.001381
</DataArray>
<DataArray type="Float64" Name="Velocity" NumberOfComponents="3" format="ascii">