<VTKFile type="PolyData">
<PolyData>
<Piece NumberOfPoints="1945" NumberOfVerts="1945" NumberOfLines="0" NumberOfStrips="0" NumberOfPolys="0">
<PointData>
<DataArray type="Float64" Name="Pressure" format="ascii">
 28073.192570 27926.244246 29179.244898 31074.690376 32879.337772 34839.479300 30149.770458 30717.587084 29582.147380 29640.065092 28317.758802 27849.296646 29934.315250 28870.943324 30007.549687 29354.359489 29414.844386 29061.393770 29169.469332 29083.699580 28123.027242 28141.392020 31514.857977 29541.162981 34208.925988 32208.197519 30696.785778 29074.019532 28971.401934 28224.737511 27622.926781 27461.779964 28239.138198 26260.347943 26725.579734 26325.232775 26544.221938 25437.591261 26898.501147 27506.807451 24786.409135 25226.776800 25324.736785 25849.128123 21790.509552 22090.525694 23299.761382 24518.704689 20771.133843 21618.474246 24078.625894 24891.551287 21937.019878 20968.219281 28769.890548 26062.156981 22663.029406 20208.337444 24477.533588 24298.291568 19727.482386 19783.688056 22591.458478 24224.683805 19831.473552 22038.200915 19796.990268 20194.005186 20689.283968 21518.188244 20166.732568 19265.738022 26518.020512 24780.752950 23142.101646 21920.686112 25686.414241 25771.544565 22200.075852 22849.574695 23151.558526 21421.784097 22789.652964 19729.404465 21557.323233 20662.138600 20484.268178 19871.490063 22812.913986 22904.271129 20619.161830 20224.469479 21300.105721 20125.634769 23864.234876 22629.734272 20238.795324 18750.685792 22391.291967 21063.061432 19156.395687 18790.972064 18361.487991 19904.835021 18840.890378 18745.527946 20374.081304 19158.677371 18116.221259 18074.905651 19536.650703 19852.977354 18562.434543 18509.314216 18964.853400 19074.705263 19315.355503 18635.813967 20191.375967 19700.566395 20375.460311 19094.040094 21541.328049 20259.370938 22253.469818 22318.483825 18220.633762 20031.225361 17661.306237 17392.354293 16430.351090 17471.973768 19315.781523 19084.414983 20157.153004 18898.636776 18416.253661 17712.536488 18165.900399 18068.581216 18475.430484 18967.287619 19271.208413 19926.791995 19729.901900 19974.781739 20240.949542 19395.929514 19950.749448 19626.639122 19153.187869 18186.788412 19855.722866 19734.234561 18001.194218 17194.772875 19384.424242 18802.549257 19302.084544 18258.791784 16906.811855 15404.583485 19477.520171 18321.493648 18061.212453 16953.581977 17652.278419 16481.373786 18652.870391 17496.880912 17731.387121 17167.307448 17526.475604 17662.635125 17663.095428 17861.672757 18536.283472 18731.149222 19178.162352 17430.697378 19984.131544 17468.921402 19191.349342 17843.290835 18402.506395 18454.637142 18335.792988 17982.533377 19452.212487 18107.799360 18935.255521 17943.689117 17027.306594 17507.544774 17228.665660 18553.819130 17002.732563 17997.799385 16178.715754 17327.703876 17299.828935 18348.473057 16906.028301 16865.765834 18193.467251 18237.124896 18214.912401 18871.673158 18813.991440 18177.864594 28382.261373 27959.727750 27512.420650 25783.073759 24734.145378 24134.460972 21783.085880 19563.002682 17630.431996 15938.628306 15243.168273 13898.602910 10629.638642 3918.504849 137.122378 -157.569236 -865.334047 -2270.352254 -3343.993840 -4088.165187 -4599.077221 -4936.646570 -5142.713486 -5247.187233 -5272.005230 -5233.767557 -5145.436646 -5017.415532 -4858.236560 -4675.009940 -4473.723216 -4259.447413 -4036.484768 -3808.480008 -3578.508681 -3349.150547 -3122.552545 -2900.483800 -2684.384030 -2475.406175 -2274.453811 -2082.213883 -1899.185227 -1725.703405 -1561.962404 -1408.033982 -1263.886980 -1129.418140 -1004.563888 -889.897225 -790.524806 31142.776226 28308.157932 26941.037639 25207.513297 24793.777561 25625.993501 22988.467888 20756.835655 18920.966657 16523.702736 16978.767619 14681.935800 14288.089054 6170.818471 830.930665 2086.666931 -14.730030 -2218.997686 -3284.659462 -4041.390208 -4563.297548 -4909.200158 -5121.416998 -5230.471953 -5258.783665 -5223.284801 -5137.156172 -5010.942501 -4853.269036 -4671.308308 -4471.091022 -4257.719379 -4035.519317 -3808.154555 -3578.716561 -3349.798867 -3123.560519 -2901.781350 -2685.910540 -2477.109339 -2276.288592 -2084.141560 -1901.172541 -1727.721796 -1563.987208 -1410.042883 -1265.853319 -1131.272397 -1005.958795 -888.795337 -774.180585 18879.810381 15002.722936 15102.299454 13395.655307 9872.814822 11253.572062 9507.528982 6056.200920 5087.544834 4443.365319 3452.598531 2303.776852 1448.554965 844.242470 419.338178 123.999963 -81.179338 -226.898225 -336.335732 -426.120900 -507.262945 -586.109423 -665.334696 -744.923395 -823.094229 -897.108938 -963.926758 -1020.688201 -1065.034564 -1095.285604 -1110.505511 -1110.488139 -1095.688720 -1067.123735 -1026.254850 -974.868036 -914.955403 -848.604841 -777.900982 -704.839953 -631.259613 -558.786226 -488.797860 -422.404046 -360.440536 -303.477338 -251.837370 -205.620529 -164.714300 -128.686358 -95.974368 17344.551941 15152.481887 14502.051270 13170.375528 11197.321113 10622.922695 9453.914288 7280.695599 5793.753551 4590.120311 3394.790260 2327.743295 1491.035273 879.895193 446.298827 143.287869 -68.121019 -218.664804 -331.649415 -423.858912 -506.476178 -586.034946 -665.399152 -744.735059 -822.423889 -895.862303 -962.112600 -1018.386518 -1062.368103 -1092.396581 -1107.538112 -1107.576372 -1092.948751 -1064.649662 -1024.116985 -973.112957 -913.607222 -847.667325 -777.360252 -704.667576 -631.415904 -559.223617 -489.464175 -423.245558 -361.404706 -304.515314 -252.907217 -206.697497 -165.847150 -130.339816 -101.136868 -719.735594 -687.165910 -693.678839 -662.691603 -627.361338 -610.047178 -546.261898 -544.152105 -478.844868 -479.067981 -419.145866 -419.718181 -365.861481 -366.449564 -318.375119 -318.925473 -276.196311 -276.701379 -238.867114 -239.327215 -205.949965 -206.366946 -177.028033 -177.404168 -151.707052 -152.044811 -129.616872 -129.918831 -110.412459 -110.681246 -93.774374 -94.012619 -79.408788 -79.619083 -67.047093 -67.231960 -56.445185 -56.607050 -47.382490 -47.523656 -39.660771 -39.783412 -33.102810 -33.208951 -27.550970 -27.642489 -22.865725 -22.944347 -18.924160 -18.991459 -15.618492 -15.675893 -12.854628 -12.903415 -10.550783 -10.592107 -8.636173 -8.671056 -7.049786 -7.079132 -5.739244 -5.763850 -4.659761 -4.680326 -3.773191 -3.790322 -3.047164 -3.061389 -2.454314 -2.466089 -1.971593 -1.981309 -1.579656 -1.587648 -1.262324 -1.268878 -1.006114 -1.011472 -0.799828 -0.804195 -0.634196 -0.637745 -0.501571 -0.504447 -0.395665 -0.397989 -0.311325 -0.313197 -0.244341 -0.245844 -0.191284 -0.192487 -0.149370 -0.150331 -0.116347 -0.117112 -0.090398 -0.091006 -0.070061 -0.070542 -0.054164 -0.054544 -0.041771 -0.042070 -0.032133 -0.032368 -0.024658 -0.024842 -0.018874 -0.019017 -0.014409 -0.014521 -0.010971 -0.011057 -0.008327 -0.008394 -0.006296 -0.006347 -0.004734 -0.004773 -0.003526 -0.003555 -0.002581 -0.002602 -0.001820 -0.001834 -0.001177 -0.001184 -0.000584 -0.000584 0.000029 0.000036 0.000745 0.000762 0.001672 0.001701 0.002954 0.003001 0.004793 0.004865 0.007471 0.007577 0.011379 0.011533 0.017061 0.017281 0.025260 0.025570 0.036977 0.037406 0.053538 0.054124 0.076666 0.077453 0.108552 0.109591 0.151914 0.153262 0.210029 0.211741 0.286705 0.288830 0.386172 0.388740 0.512837 0.515842 0.670845 0.674225 0.863391 0.866993 1.091685 1.095228 1.353497 1.356522 1.641188 1.643004 1.939157 1.938776 2.220624 2.216692 2.443743 2.434472 2.547046 2.530152 2.444321 2.416976 2.019087 1.977893 1.118947 1.059948 -0.449810 -0.531068 -2.926867 -3.035186 -6.601284 -6.741386 -11.813426 -11.988153 -18.957448 -19.157985 -28.501198 -28.647685 -41.119455 -40.714648 -58.734049 -54.458856 -74.617669 -66.483783 -81.494447 -72.805975 27376.199068 31516.692915 23734.192506 31724.179685 28934.684110 24100.333578 26164.458174 26049.550917 25062.026887 22844.299679 24669.100254 29614.202967 24982.960682 22684.993569 27914.897847 21088.190618 15951.102045 22873.371017 20797.660428 21678.045697 22802.784672 22609.557782 28851.936957 25581.422570 28522.325601 27534.992038 24494.810298 27233.995455 19656.973431 25236.257289 20573.829190 9192.262633 25805.921184 28477.670556 27838.711762 26984.352421 17735.327452 23674.493601 27651.462820 23386.020502 15953.826302 22817.448234 14344.214813 26916.804445 20435.295299 12875.182388 27819.390214 28845.567780 29373.298353 23530.820696 26263.046387 22199.300197 14834.455153 21239.753554 21173.581647 23383.026317 25333.152019 26284.736566 29130.512761 26160.817139 22255.257345 28473.886030 25197.263824 22032.215325 18432.025587 27301.075713 24468.673715 22730.365243 29799.384070 25459.327880 25615.077049 24037.611056 24862.504580 21753.080067 21709.912201 21607.574539 11958.371646 23816.209461 25889.605930 26540.181326 23648.892336 29292.439951 20847.135638 18700.027655 24893.747978 23873.423130 16130.378050 17564.465553 28396.326142 25868.275711 20735.034783 24441.378507 23938.654072 19036.956807 19746.770067 23394.034588 22133.872626 12842.436814 18172.050070 25345.282001 21216.100889 21198.869595 23191.703926 16608.351927 25466.572653 16024.512442 23227.027772 23343.922195 9960.210411 16323.520971 26412.974251 22932.089060 25050.897232 8698.743018 24972.459269 15357.289165 22037.430992 11769.058007 13124.427546 9442.953250 8838.593453 24427.561232 23626.230033 13873.617649 24720.349143 10409.734255 17815.151723 13085.327050 16232.300719 15657.269818 17289.290734 14302.866444 24228.525336 21908.365393 21944.096965 19506.552992 16002.205715 20745.459223 17504.904109 12616.533863 22262.756394 22140.120258 15158.043365 23998.954530 21769.536292 25819.897502 24713.054286 20985.298487 18437.832703 17727.119659 15041.535984 20072.575965 10530.026822 13401.474551 23889.911946 21524.798099 24299.397630 22091.103283 17289.613943 25063.561022 15063.722687 14904.406701 6886.959457 8839.905032 9793.882841 22111.285249 23853.483282 23187.352175 16487.319960 16529.044047 14236.677958 14590.438038 10839.613949 4380.529403 6275.430876 1299.966590 23347.445327 21254.688980 22544.923080 21628.100337 18407.380979 17703.275491 13093.765919 16019.975002 10753.168382 4191.316382 6388.328809 20627.998854 19337.533694 20855.871428 16848.502361 11923.338404 7417.977064 5280.496602 9457.650280 6171.779376 1131.179321 4220.348311 22495.489695 20403.948487 17613.534224 21167.749485 16979.163436 8306.106985 14958.864909 7996.371995 9219.232204 2845.361804 4749.323963 22103.162442 24423.910476 20403.877059 19903.218517 10524.940782 9183.674727 7803.225448 7443.787761 5361.116081 2540.906154 1658.977142 24022.209387 20296.489989 22689.805559 18356.217061 12389.055300 6493.755377 5852.118241 6074.387610 4719.043331 4950.991287 5467.876617 24372.149198 21070.120017 16127.667994 14926.295525 15076.345245 6499.888027 6913.337495 4463.777220 4084.552806 2784.281397 3600.664268 23737.465083 23671.209376 20033.410483 11734.224988 14548.595775 13937.132020 7058.387701 6272.028383 6957.314916 5896.896113 1655.520390 25067.770596 20780.007484 16809.850701 16222.110055 8751.682272 10818.702900 12493.383358 11800.250206 9263.911526 5472.439229 2506.310517 20482.462958 19336.789734 17499.096958 16213.872124 13032.509690 13558.567735 8567.628480 4091.031043 11632.745017 4960.755680 3473.625715 21457.213484 17737.448902 18174.689783 19651.065865 17105.929160 10607.447405 10340.859760 7958.129630 9808.544045 7471.309939 4946.881938 23675.449490 19333.950171 17311.866898 12370.461687 18135.104900 6553.860203 11358.813545 6592.538337 4739.150729 3352.543517 3302.705964 19225.961670 18264.611692 14095.704113 18069.200919 10868.306796 14926.453989 9512.208677 13530.661178 2894.394412 4907.297209 5273.302819 20739.167957 21861.326597 18007.074496 18638.988707 16054.529653 9032.981823 7298.023642 9172.838562 4671.469774 7753.470214 3871.537278 22828.671570 19950.478389 14310.011504 12232.080067 14044.781658 7410.920793 9507.881362 4767.875832 7220.642811 6884.735813 2687.468198 20810.181517 18792.652244 20016.001177 15578.793231 15301.599340 7165.502295 9251.986268 9285.335219 7330.324424 6018.543064 814.801592 20214.305835 20142.390860 16246.662717 17740.963675 17234.513904 13794.132972 10911.949126 8875.176634 8078.131688 6853.618596 4050.641016 21087.875094 11403.272965 19367.906249 14918.683998 17359.639189 12388.208850 6729.177925 10696.051085 5597.349179 5173.882883 3760.468595 23130.175934 21774.330790 20529.278369 16317.009063 13794.749058 11064.518980 9400.928651 8448.342243 4598.458535 4459.952668 3673.530071 20780.600025 19729.537290 18255.525366 16346.920384 16269.565201 11627.791317 11929.917310 5205.104231 5732.024307 4849.366676 3387.048116 23510.114172 23465.434603 18050.939763 16784.500814 16241.186838 14883.411525 10579.741597 11917.871724 3433.168573 4421.594097 3896.091380 22575.055575 19634.487469 12930.443266 16691.122630 19439.496417 12704.727235 12862.210166 11820.530223 8712.994740 5649.265832 3207.581656 18009.395884 20027.882813 20993.777255 16266.606026 13901.914180 7835.866153 10015.246991 9852.827771 15320.933314 3475.886288 6241.762617 19921.688344 20912.760871 17978.023201 12981.673757 13817.634648 8002.342074 7664.035833 4157.992748 7669.789056 3656.778572 4145.631657 20428.144729 17284.721210 18326.191138 15025.804254 4935.016142 9150.495449 5546.474402 4918.102963 4249.525225 7449.903575 1480.593746 20637.218103 19655.030081 18758.324664 18623.556933 15433.404727 9888.109694 6304.425047 5765.714468 7705.832199 3854.903547 2831.685235 18409.785713 19000.582294 15417.482704 13071.888041 11900.749410 11233.834782 14145.618749 6806.802088 3999.005953 3861.759650 3772.418684 20542.173129 17856.004027 17231.904716 11572.582796 14073.723666 9094.489940 9453.514000 7844.327366 7639.926920 5109.660876 4471.935892 17006.727571 17923.450279 16582.976090 19754.152643 10113.886971 10424.752691 7000.582605 8962.977800 5450.971072 5036.250089 4190.404833 20772.307944 20506.856966 15982.203478 9055.901626 12086.313723 10295.711639 7776.687986 13106.773744 6584.732354 6932.158980 3010.633704 19982.799504 17600.487776 18973.822944 6044.734914 7122.481917 6440.551285 7346.533869 6687.960848 3644.364996 8613.073657 2344.749604 19740.098951 15383.772148 12866.859574 19367.383623 8897.848447 12322.979294 12020.117036 4248.312366 4882.115240 9487.403740 2410.037242 21077.089343 20346.189200 17730.669995 16704.515992 11278.234080 11934.152452 5462.204800 13661.825406 5751.389438 1891.547581 3955.653899 18077.005207 19420.295780 17333.015687 13399.740421 9923.910717 13430.348784 13153.575913 3771.631484 10095.190847 2743.310795 2802.103403 21053.407363 19708.173662 18791.549929 13439.960491 13746.412607 12052.807823 13410.712890 7680.346844 10102.040049 6211.189388 2572.612962 16750.694857 15536.923469 17919.618735 16193.415304 11081.185807 12784.269157 9272.038052 11044.061975 8008.322553 5454.112126 2322.625683 20175.036176 19315.581290 15905.796982 14108.907120 15198.655796 11112.925980 12039.808758 10322.977320 5002.195212 4125.757146 3331.588426 17890.847229 17202.848672 17061.878085 17290.431349 14457.767378 12644.132176 10096.839090 7663.904756 9264.511100 7705.792976 5989.505629 18216.262070 21890.223328 16868.373934 18336.737695 15259.503754 13763.261353 7163.968323 8066.638754 5362.979404 6060.780975 3935.113485 20206.993920 20240.187542 17585.036700 14830.499793 10918.669093 6430.686089 7406.930026 7991.571644 3868.474759 3778.038743 4280.194688 21835.911574 18579.960867 19504.195757 15654.750878 9935.380696 9052.867797 6887.775769 5160.980923 3571.901223 4255.166858 3863.143468 18596.646152 17618.878575 16030.025773 12605.432335 10712.855803 9577.046928 10218.570979 5184.164824 6418.922107 3671.677647 6581.793569 17651.171701 19813.170369 14359.782107 7610.238271 15919.087695 10312.812906 11359.206894 7667.481673 8958.816073 5145.724835 5321.509761 19082.617884 16023.870759 18209.370222 16392.315839 11839.560990 13037.550292 12114.171541 15501.447917 5986.674739 4889.550002 4295.359676 19227.595312 17691.745736 17232.274671 16516.286035 13256.567846 13514.183395 13002.930271 10269.580421 5425.333425 5314.222962 6137.762356 18633.044985 14570.098917 16688.260844 17036.233683 12586.703409 13311.526957 8980.927438 2533.301784 6588.146632 6998.018814 3028.490887 18692.778325 16813.336500 17306.446104 13751.230163 13083.323319 12039.966035 5005.143851 4878.620426 7532.371026 3829.471724 2477.685444 17909.424421 17625.040913 15808.091928 15608.964029 13663.339223 15348.295751 17791.524702 8141.308707 4587.024596 3432.507742 5212.194112 19127.070347 18981.682377 18066.078485 13956.836252 14509.812764 12738.463688 9146.531015 10566.377463 4960.390770 2785.343546 2579.474250 18110.344758 17123.485114 19259.926042 15134.364248 14963.170578 17073.379342 12669.524144 9034.071027 8497.466334 4516.081754 4943.527795 18272.350799 18340.042025 15696.959743 15484.297355 11770.352323 13458.746071 11322.317652 7340.586856 6848.307860 7312.713376 5170.087084 21325.155865 17053.426872 17527.604012 17589.420942 13177.025045 15535.220410 10910.912951 8803.218050 3761.102927 4701.558274 3743.581288 17676.720524 17550.815011 18193.315295 17341.334947 12804.249352 11531.444525 8994.697823 7028.950856 7078.474288 4877.857400 2857.094290 18102.093055 19016.937700 12207.755276 14472.375647 13653.994425 10795.016520 11093.007142 4805.514263 10309.837370 3360.111131 4005.406666 17622.383884 18432.851930 19393.462727 17626.316690 11569.622010 11837.572112 9384.923405 5429.736378 6332.042217 7693.193674 4663.874136 18992.366475 18362.859147 16264.776394 15544.100620 12197.758603 13585.127632 6863.778252 12195.316442 9146.569908 8289.518732 4210.450965 18037.294388 16494.183604 17744.708859 18089.850759 14179.492440 12014.351041 11411.820471 7801.287400 7865.625372 6798.085827 7283.353169 17269.766004 17210.836059 17208.290592 16100.701515 9178.993210 13195.111951 11657.078855 6508.189049 10903.020104 4854.255541 2533.062977 17472.300959 17288.105304 15155.460497 18113.055856 16005.860169 14621.229160 9549.683414 7867.827401 5660.811543 4981.433004 3122.086625 19328.479471 18568.499355 16004.863167 16163.955266 13251.014902 11153.151080 10045.830599 8296.618058 6047.269308 7207.514874 5558.775544 15421.902525 19609.530957 15158.516554 17116.482601 13639.340432 8565.542472 13781.933081 4959.075152 8613.816214 9847.287565 778.849048 18130.754510 17595.757708 14792.716784 18935.649623 14543.570616 11733.317400 10134.692618 8106.624669 8093.717838 5171.842055 3392.974346 17221.842702 16189.787153 15566.881118 15557.581182 14943.657068 12101.928282 9009.681224 8109.506372 6461.185004 7304.595087 4886.629734 17689.988431 15773.207792 19225.985469 15485.812778 15749.388903 12982.142358 13998.324358 10750.831921 9185.092929 5489.059483 3804.356298 16490.442376 17280.494813 16712.778270 15818.209920 12660.507762 10389.497445 12061.905231 6600.268672 9270.198501 3386.328361 9960.458935 17784.953262 15827.838572 16663.665617 15392.188501 13300.988629 12119.324465 8993.371742 11836.635733 10253.945865 4384.682134 1438.545359 15375.031820 18494.110238 16680.263088 14779.463617 15866.485817 13860.583491 11824.782636 11057.016653 10707.404235 8766.140429 8424.555282 15646.749049 13952.969705 16199.812147 14393.977438 15928.498990 11694.160265 10416.147071 10055.176913 11049.154550 8051.185300 4799.816542 14955.717853 15838.414385 15966.561720 15883.100997 13730.695365 13967.856264 9427.972456 10972.304626 7542.600191 7616.569889 3229.934812 15600.940426 14556.328228 16074.637713 16091.231010 13909.619924 10309.240475 12242.518243 7498.313681 10451.233114 7930.926210 6665.894640 17104.461317 16829.848968 13300.031552 15383.064388 13163.446220 12696.938810 11615.969916 10519.689039 5056.072553 3076.651592 6247.647859 17554.195041 15505.274298 15550.270102 15686.251764 14559.104870 12330.320674 10992.942514 9697.574934 4517.546127 7677.076291 7928.161166 17501.588299 18089.750366 14309.233491 15008.912776 11365.197246 13914.230737 8939.233796 6030.649609 10173.314880 5114.651337 1293.431970 17149.479848 15025.489347 13869.807793 14802.749560 13659.967520 11842.983542 11898.158601 12574.646487 8533.943244 8708.472931 4595.847522 18024.434657 18438.499971 13343.113389 16219.662403 11020.228053 12312.675762 13094.041515 10569.680889 7427.462160 2726.026204 4525.766369 18338.130364 15405.677898 16637.017799 16436.204541 11934.905985 12308.960638 8461.692569 11383.189793 8879.583677 8626.524028 4568.197551 15906.070402 16289.785580 12752.062701 15302.902844 12014.053020 13021.077880 10535.390711 13595.613075 9214.022171 5867.120554 7282.612975 15236.179196 18007.572960 16797.823541 17751.837413 15575.410316 10019.868184 13700.489763 12695.166695 9643.799066 5785.555527 6991.772492 17907.560252 15622.337705 15154.234712 14617.441271 15030.594512 13404.795197 9147.538594 14733.101917 9027.973733 11105.200168 3192.697811 17899.983793 15129.479684 12520.361441 12632.660381 13029.001861 12868.345072 11042.481714 8692.904276 5040.217379 7202.244831 7907.341957 16700.541804 14220.470181 18177.917982 14239.961882 13063.874745 10980.470230 9419.820944 8904.699602 6155.426872 5688.153892 6615.536021 18225.165853 14559.416783 15925.559080 10307.872604 11761.342487 11390.774646 12855.949630 9060.344864 4942.293342 7275.433258 5779.098276 18542.890662 17072.659036 16290.033700 15273.901947 12847.604109 8275.249335 11321.166440 8482.915437 6983.315672 4168.457574 10111.051873 15056.117220 10683.672500 15713.889786 15273.734903 14571.036841 9590.582580 16173.156513 5791.794060 8550.874540 5942.433863 1805.003937 16571.548281 19319.601998 17434.015559 15400.422626 12945.927816 18200.373429 12377.362545 6060.878244 8121.807735 7019.974257 5188.204132 18040.499064 17140.468070 16197.984538 12273.580092 14756.709461 10487.673834 13687.948408 18145.563189 7186.875345 7152.596596 4776.808114 23895.490778 31034.534429 30833.078250 24782.527833 19181.094153 25639.332116 23505.894535 26701.502778 25848.586548 21927.767346 19973.942680 15479.424152 11425.761644 273.514207 25444.770610 19984.385933 26791.908984 23536.320587 13820.189210 29572.513662 19177.794592 15751.728345 24546.610112 13159.542980 16253.639164 15213.810754 6957.359703 20431.313675 12291.903584 18528.346525 20893.860884 10957.342997 12279.040699 13437.994044 16783.796482 14725.533011 21326.085384 14507.915855 10073.998609 9633.869478 9594.775648 8309.839568 18686.771114 14167.374805 16528.212384 17663.611190 20273.271354 16953.932658 17920.404906 18252.924997 10069.872634 22011.823054 18901.452264 12729.687144 12009.777722 9966.240884 20007.866414 25069.213670 14970.196372 14504.346281 20807.798718 16760.733951 18256.335447 15432.586746 19479.208660 7516.218033 14137.367292 12385.092701 6944.462592 14657.669668 15118.904251 21111.294483 16501.458462 25141.813712 20293.094503 20003.906989 22681.679713 14398.827117 11239.317419 12244.047041 11835.095759 10878.580180 18830.757175 5281.979086 25941.277598 7522.765434 15455.152126 15880.487789 7020.706822 19000.409912 19106.073267 22524.012615 10779.668004 11170.294093 9269.952618 9921.049022 9272.103063 2545.526650 12416.708088 11264.356460 12475.994775 19187.974244 15469.642298 17137.040052 9021.174246 9224.210156 3044.626102 8734.038414 13453.425358 10434.685022 7714.429912 5918.594272 17634.566294 17455.445369 11999.495386 5844.439553 13031.654328 10489.154969 8579.265936 9043.738544 6462.613829 13275.641959 11418.927165 8262.297877 3951.368958 7714.215056 8713.036099 12913.904255 12278.523446 10432.991378 13345.776834 10078.461570 12658.837691 9774.915904 16105.100189 7059.493603 7058.916353 7048.338946 4217.219125 5535.088637 9973.768880 9548.370352 20369.372738 15293.530335 7594.803378 9401.342361 10065.126191 15650.936182 9606.980598 13252.329177 15670.582179 11666.150316 5058.991119 7236.105475 12901.636803 7065.424640 11770.202917 19443.797732 9410.239319 13423.147589 9027.765291 12811.440730 8190.838761 9827.348463 8160.795312 19212.896474 7805.911465 6088.513185 5578.188205 5161.796559 8982.792650 13229.424060 4939.276220 6819.516519 10812.104447 17761.494469 14855.941517 7813.450338 8527.171352 9459.812556 9005.910056 3049.671949 12334.028343 8041.327380 5081.100211 7160.690465 7939.546275 9430.399647 8883.236852 11293.034474 7877.050176 12308.916274 8304.723140 9250.051031 4684.095404 7496.180989 1865.477352 1867.619075 2594.831560 1063.846015 1930.447088 928.516623 8011.663592 3652.910485 6298.399691 9461.606223 5314.927331 -3338.805430 4501.659595 7421.146484
</DataArray>
<DataArray type="Float64" Name="Velocity" NumberOfComponents="3" format="ascii">