<VTKFile type="PolyData">
<PolyData>
<Piece NumberOfPoints="1945" NumberOfVerts="1945" NumberOfLines="0" NumberOfStrips="0" NumberOfPolys="0">
<PointData>
<DataArray type="Float64" Name="Pressure" format="ascii">
 22265.788906 20721.694576 21917.824983 19525.577686 21621.194725 19226.274605 20773.842080 19693.705387 20163.820554 19870.445143 20500.311130 19990.304562 22047.837172 21410.090328 21426.014755 20251.792954 20602.558228 19413.406573 21373.125688 20184.059873 20997.021046 19564.579398 21329.251607 20555.022692 22455.527715 21710.386315 21324.886124 21028.743085 20651.716356 20478.301912 20280.621501 20119.550814 19742.475205 20537.184316 19962.172695 20553.406482 21052.105982 20820.253649 21922.489275 21418.290791 21879.080179 21681.635895 21737.843920 21083.809537 22419.763401 21614.186262 21548.831173 20681.460522 21248.262690 20062.945433 23108.410602 21120.868436 24496.116648 21999.178005 23523.519723 21163.776896 22245.156356 19931.584464 22763.850785 21518.108046 21013.371388 20025.710334 21672.174258 20730.434984 21410.138857 20633.430508 21381.900666 20496.168893 21289.394768 19939.830560 21866.312834 20716.224040 22817.623369 21787.655221 22377.765630 21247.191933 23623.572836 22941.833670 22561.008550 21947.701835 23706.723847 22688.447036 23514.462324 23081.866475 21378.863028 21040.291959 21021.577479 21264.957598 23083.394659 22911.271218 23713.368604 22279.381187 26706.325356 24875.837589 25473.795039 23497.469254 24374.491549 23636.196469 24224.205716 23126.322373 24062.546642 23734.930416 20068.325997 20793.496250 21564.120482 21408.266569 25567.591741 25726.045655 23030.351848 23208.829537 23260.155567 23593.370535 23352.617211 24546.219364 23385.788617 23810.377981 25244.297857 25171.683604 25017.526733 25508.249106 22767.066168 23553.615466 23893.984482 24068.496001 25347.111332 24151.663169 27606.333377 26299.773715 27398.647011 25907.729596 28657.811172 28247.405817 28222.121327 27424.025292 27801.410847 27538.178046 27476.356730 27890.574301 26389.759635 27094.764498 27389.377823 28273.990815 27758.537014 28874.315385 29301.944982 29284.207446 31453.986828 31043.639613 32181.900311 33163.373218 28196.903973 29460.257264 31265.772019 31262.768206 32589.642260 32445.268621 30609.983579 30417.840232 29478.871761 29974.685697 32935.518903 32704.713792 30832.992003 31046.812802 32598.815093 32652.861892 33202.417911 32931.638484 30472.841547 31565.169312 29724.914498 30735.150104 34084.884594 33114.595875 35106.088015 34951.813073 31609.125658 32972.586762 29985.582861 31497.376788 29748.391253 31649.513172 25063.910802 28087.319833 29292.709606 31865.482041 29806.502660 32086.344946 28992.966793 30273.425000 29119.140972 30668.088301 29335.415167 31346.711803 29511.753985 30216.611488 29182.386020 29894.148529 28371.273988 29429.615831 27406.954213 29450.306993 26783.446119 28485.292093 27451.235475 27851.487177 27097.080994 27221.420273 25927.233691 26006.121162 18593.747442 17654.292789 17201.280020 15684.076723 13410.199347 11695.024626 10026.495144 8072.709237 6557.743147 4677.007418 3215.110752 2674.616581 -512.477608 -4424.422441 -4719.729509 -5146.879780 -8454.455041 -10264.480654 -9505.945929 -8622.590425 -7868.197807 -7251.326205 -6756.359642 -6361.083638 -6036.664092 -5754.903438 -5492.619744 -5233.353650 -4967.254278 -4689.985610 -4401.275900 -4103.498018 -3800.478996 -3496.606248 -3196.220077 -2903.244019 -2620.993086 -2352.103722 -2098.539966 -1861.642659 -1642.199552 -1440.522710 -1256.525563 -1089.795728 -939.661910 -805.254494 -685.560867 -579.482474 -485.936336 -404.253219 -336.613107 16689.115335 16036.224497 16102.023406 14734.222350 12032.708229 10501.935242 9000.647260 7263.187964 6503.827206 4972.642885 2290.129544 1220.837160 -1255.175779 -5209.927903 -4265.877549 -4207.340078 -7510.619805 -10108.067047 -9402.743004 -8567.876284 -7879.883177 -7273.692093 -6777.206638 -6376.856533 -6046.848023 -5760.257387 -5494.397670 -5232.870886 -4965.653921 -4688.139636 -4399.772644 -4102.677704 -3800.489408 -3497.460599 -3197.847293 -2905.527591 -2623.798342 -2355.295270 -2101.991742 -1865.242892 -1645.852552 -1444.148822 -1260.060200 -1093.187983 -942.872975 -808.255578 -688.328017 -581.971939 -487.939297 -404.516179 -327.293501 27092.490648 26880.210198 25928.146021 24904.763675 23707.957164 21031.443221 20575.319794 18333.702572 18308.410788 16313.081794 15176.939432 13006.344580 10295.832004 10732.824916 11802.475974 10883.125105 9737.371011 7974.389737 7780.356993 3824.783499 430.915756 -647.250727 -1942.212902 -1920.225091 -2084.742180 -1664.353452 -989.440946 1162.191796 6620.905625 2225.190594 -6597.101536 -4607.681209 -2598.777885 -1692.908756 -974.295945 -427.955944 -53.043764 171.221927 279.306715 308.196417 289.942642 248.554996 199.928373 153.301215 113.147946 80.903213 56.285379 38.198191 25.280657 16.184986 9.602885 25749.871218 25378.102044 24511.502969 23271.045115 21913.218944 20089.977274 18748.835109 17692.259766 17199.599702 15456.408284 13926.513998 12208.508793 11033.413978 10781.219844 10659.617102 9840.725561 8525.588425 7015.957444 5319.509685 3423.926681 1672.953732 380.709122 -581.188868 -1214.226232 -1541.061436 -1497.427271 -890.138265 408.963926 1579.755175 877.705711 -1335.308018 -2538.434978 -2345.315473 -1661.631304 -994.516578 -459.330690 -83.246358 146.847073 261.990881 297.346724 284.152666 246.264959 199.783625 154.285804 114.583239 82.384842 57.605066 39.274642 26.112949 16.865261 10.586147 -290.204990 -269.137431 -275.477311 -255.920766 -237.476905 -227.035394 -193.105550 -192.000576 -158.862233 -159.130610 -130.522019 -130.958739 -106.859452 -107.267857 -87.140431 -87.494798 -70.775048 -71.077028 -57.253444 -57.508781 -46.131407 -46.346065 -37.023574 -37.203085 -29.597755 -29.747113 -23.569447 -23.693100 -18.696520 -18.798395 -14.774159 -14.857691 -11.630129 -11.698299 -9.120416 -9.175792 -7.125267 -7.170045 -5.545639 -5.581684 -4.300046 -4.328933 -3.321793 -3.344842 -2.556563 -2.574873 -1.960339 -1.974821 -1.497623 -1.509030 -1.139926 -1.148872 -0.864488 -0.871475 -0.653214 -0.658648 -0.491781 -0.495990 -0.368904 -0.372151 -0.275731 -0.278225 -0.205350 -0.207258 -0.152386 -0.153840 -0.112679 -0.113783 -0.083022 -0.083857 -0.060955 -0.061583 -0.044595 -0.045066 -0.032511 -0.032863 -0.023618 -0.023880 -0.017098 -0.017293 -0.012335 -0.012479 -0.008868 -0.008974 -0.006354 -0.006431 -0.004537 -0.004593 -0.003228 -0.003269 -0.002289 -0.002319 -0.001618 -0.001639 -0.001140 -0.001155 -0.000800 -0.000811 -0.000560 -0.000568 -0.000390 -0.000396 -0.000271 -0.000275 -0.000188 -0.000191 -0.000130 -0.000132 -0.000089 -0.000091 -0.000061 -0.000062 -0.000042 -0.000043 -0.000029 -0.000029 -0.000019 -0.000020 -0.000013 -0.000013 -0.000009 -0.000009 -0.000006 -0.000006 -0.000004 -0.000004 -0.000003 -0.000003 -0.000002 -0.000002 -0.000002 -0.000002 -0.000002 -0.000002 -0.000002 -0.000002 -0.000003 -0.000003 -0.000004 -0.000004 -0.000006 -0.000006 -0.000008 -0.000008 -0.000011 -0.000011 -0.000016 -0.000016 -0.000022 -0.000022 -0.000029 -0.000029 -0.000038 -0.000039 -0.000049 -0.000049 -0.000058 -0.000058 -0.000065 -0.000064 -0.000062 -0.000061 -0.000041 -0.000038 0.000016 0.000021 0.000136 0.000145 0.000363 0.000378 0.000768 0.000792 0.001457 0.001494 0.002593 0.002651 0.004421 0.004510 0.007308 0.007444 0.011802 0.012009 0.018734 0.019047 0.029376 0.029854 0.045734 0.046478 0.071090 0.072275 0.110987 0.112931 0.175078 0.178355 0.280464 0.286079 0.457581 0.467125 0.760412 0.775369 1.285235 1.299677 2.213704 2.165527 4.016493 3.407229 6.007320 4.699991 6.964555 5.489417 16407.026063 19660.942251 15697.770216 19104.152638 18512.320224 11534.004691 16479.803859 16689.574352 15540.890842 13416.960890 16089.872896 18774.829278 17216.657198 14692.113043 17506.634033 13586.993077 9572.820682 12615.585714 12947.598160 12621.874728 16427.442797 11816.538640 19778.896931 18230.217425 20853.830495 18041.470435 14651.780304 17387.334724 7899.661762 16886.737841 14400.376224 4535.870461 18663.964359 17504.162324 17515.406517 17979.783204 12016.815003 16047.833043 16243.830666 13803.946710 7627.694083 16138.564401 7770.854975 16842.165507 13879.621165 9905.056023 17571.041234 18561.956122 18540.697907 15956.374226 16428.877363 14627.494879 8759.548769 13984.091351 13702.480010 15648.851027 19063.833768 19250.700859 21135.511519 18410.232149 15968.242126 18462.722529 16729.151865 13829.631794 10669.117398 17934.476903 16412.932800 17694.685052 20257.478946 19139.317273 18293.771990 15630.557870 16557.146572 16682.067683 13544.997480 15981.232116 8151.650232 19190.504994 18713.593273 19514.534776 18840.444745 20500.763045 14153.642932 14264.829295 16646.628692 16362.064140 11949.516806 10600.739194 20561.555859 21203.047148 19029.230601 18866.265771 19586.335548 16823.564875 13828.377274 17179.377324 15213.811835 12587.625780 16462.523640 21014.674961 18950.165526 16361.799086 18544.824212 11181.077348 19181.406444 13658.105802 14792.270588 15814.727456 5559.052842 14656.179745 20994.479788 18464.728929 19309.323645 9074.508819 19164.621733 12396.125414 16398.269728 9161.069825 9143.377208 6957.923396 4254.752450 19004.442040 18946.786489 14532.590974 18461.677815 9025.117933 15884.336869 9324.661777 11836.847267 15325.356500 13132.705535 12413.100007 19438.634270 17331.114580 18244.794540 15297.380014 14036.514778 14486.466146 16177.363550 11774.550500 16868.345823 15655.128421 11280.903525 18350.066282 17729.954030 19360.486383 18860.994103 16925.220361 16031.815887 15456.705605 13002.538650 16206.421980 8307.814993 8269.555513 20502.536997 18156.614553 20080.784887 18627.494857 15584.341754 18671.749343 12226.560303 13753.829150 4797.802329 10808.312566 5779.496404 19938.482713 18891.191078 20336.736323 18444.396403 11393.236023 12547.463864 10900.723760 6689.246590 4222.592313 2643.558615 4463.185841 20256.927067 19829.699272 17266.192262 19697.179612 15879.601308 16550.669959 12988.848268 14981.671263 6250.710362 2478.919027 2982.631342 21067.504355 18677.568027 18833.423569 15871.290782 10200.597021 7056.871231 5987.166151 4332.371144 2632.535783 2162.331646 2953.544637 20571.950367 17732.929240 16852.719880 17324.801107 12967.780628 7801.060313 10029.941503 7241.178251 8578.317631 5480.267618 2697.207800 22661.503581 20948.864714 19477.044662 14147.397326 9756.548318 9385.402703 9299.203315 5801.263914 2543.347070 1727.655417 2586.371481 21830.575545 20076.303718 20107.622575 17286.999877 11601.303178 4605.946898 5292.171824 3340.052488 2765.647306 3557.568672 3107.780003 20570.649688 18730.381731 17047.751237 15399.223563 14821.434236 4109.179308 5563.808755 4099.289198 6149.413968 2612.356733 3360.931446 21086.416578 20924.687764 18123.209837 12861.531059 13301.578606 12667.518268 3030.279698 5254.634048 3761.408228 3868.008338 3948.499912 19983.146844 20284.043033 16336.700053 14547.727100 6617.285323 10676.733675 13213.444178 11277.590350 7024.837048 3144.800778 2685.717398 20414.791601 17377.520600 16295.843430 12744.195027 12176.280287 14017.643543 8490.140962 4562.212425 10012.285609 5047.945097 3262.096033 22191.697013 18439.275284 18208.681439 19808.744704 16310.759731 10893.755484 9312.902060 5463.715254 8792.775659 8639.799887 3984.677319 20756.857946 18840.836376 19630.692198 13923.515499 16714.371640 7743.243302 12570.978280 3624.350806 4363.473835 2680.651734 5108.310414 20721.543987 15799.820117 12255.130139 15873.745542 15866.198259 15098.648735 9961.581454 12861.709944 3799.939454 3194.167185 7709.116593 20840.093671 20626.692071 16844.381051 15587.147291 17398.752372 12275.367711 6084.020971 8176.796612 7845.848085 7335.712670 2480.656383 21636.958986 21173.961548 17870.942201 11977.535791 13340.257754 11005.630116 10790.767340 5614.602812 10396.250963 6898.867633 4096.744613 20663.534781 18086.236737 20453.083787 16737.756769 14464.137854 7280.788653 10380.720854 10011.506532 7798.691996 5088.153212 4009.648368 23646.969301 21921.462251 15915.136938 16881.542500 16903.904452 13931.788054 13821.530734 9139.832834 10117.725189 8748.657122 2909.773286 19885.934998 10576.454353 19201.365631 17372.494801 17252.063795 15089.915450 8290.221676 10909.888581 4568.886389 6525.366313 3779.730979 23061.458682 21506.510098 18755.891974 18393.839278 16024.537654 13425.273046 12753.805147 10745.589759 6350.298588 3967.965006 2857.309698 21649.134340 19941.980809 20673.308680 17860.836249 17096.271698 15038.024516 12805.208073 6645.197422 5880.398213 5270.920905 2119.944148 21897.806260 21076.821107 20124.359362 18037.152031 19360.165046 16035.470876 12720.965073 15561.222378 5770.441116 5961.875055 3733.198852 21572.661726 21575.036543 17739.915165 18402.119512 18532.281120 13071.117359 15050.126372 11781.435986 10775.688817 7064.141878 4944.460879 21787.159027 21890.078587 20849.674670 20677.016164 18266.101867 12883.908472 14694.590208 12222.359252 13321.236170 5578.234952 6646.027571 23953.722963 23884.602145 20809.573961 16681.525561 16158.603655 12135.906707 10224.519622 7089.889496 9657.436051 5847.332494 2758.186237 23697.955682 18757.814766 20699.881905 16016.804825 8630.418862 13863.599827 7647.651856 6740.516508 4140.969525 8740.926269 -10622.605174 24452.339312 23011.542630 24133.756187 19302.458460 18466.825913 11784.736356 9182.404670 7032.977928 10698.350011 3621.510697 6365.336121 23261.696640 21042.102584 20797.291059 18249.905654 14674.257396 13407.785183 17915.773523 8379.442465 7040.289780 5018.706365 3563.183647 24708.025696 23911.001800 20310.848343 17838.704224 17442.080013 13261.992223 12585.825938 11235.881690 6692.055331 5470.621736 6826.669373 22681.868926 20449.912815 20526.813989 22481.443245 17061.503525 15374.369699 10123.583277 7600.011984 6671.247193 4836.031495 -9024.659250 23915.006217 22353.640379 21198.399251 14616.674751 15156.714034 14741.329944 6630.854414 17076.451480 7808.943532 10019.353339 3481.791377 23106.444790 21207.304042 21809.078044 8762.662673 9720.777329 11167.998642 9849.414180 7963.283440 5901.273957 7918.503651 3266.470240 24656.784902 20108.854912 19447.012523 19617.739146 10977.978591 14791.484541 14446.956960 4837.968626 7729.362613 13589.864644 5049.471159 24045.325000 23463.134632 20228.711142 19972.128119 17021.239168 12943.072451 6645.380154 18484.715338 9707.026987 2577.048317 3345.623536 24448.857436 23606.475922 22270.847224 18479.525195 13573.715176 17718.100956 19062.522524 9083.736475 12180.314675 4305.031052 6277.729970 24250.134569 22920.520830 22932.552464 19388.660857 19025.298354 16361.950351 17182.906913 12186.222965 12581.838824 5576.452320 4004.269255 25090.894150 22133.699292 24327.028964 20342.882267 18214.854385 17898.257709 14654.945900 15620.523291 11756.779473 9148.600169 4739.959836 26145.028737 25798.916040 23218.463891 21808.543366 19744.339237 16081.030133 15452.122546 13962.882114 8868.299613 4956.150946 1892.827871 25045.716639 25339.210773 25174.973101 22643.854357 21200.531992 19486.012567 15162.776130 12259.872742 12926.108688 11375.471639 3937.205863 27330.353251 26243.276958 23181.923344 22326.507156 21995.471486 18737.001814 11885.144519 12879.050140 7087.569630 8626.861996 4634.404722 27582.411912 25535.735438 24874.561995 24312.453048 16029.713219 10480.834429 10552.201886 10388.003767 5769.482787 3963.993133 -1383.655627 26436.659882 27337.722503 23997.215497 21773.810032 17620.215821 15777.681214 13043.491439 9494.538810 7436.840332 5373.525138 2763.441681 27582.288305 25509.926885 24797.577626 22017.960492 15853.798081 14251.292916 13843.774603 9984.544631 8017.012130 5154.980645 2274.355723 27610.938545 28144.768236 19924.763265 18816.408158 19302.490753 17807.575545 16352.396379 13660.553365 11808.549288 7247.285278 5096.452321 28784.074526 24957.134891 22202.921266 21619.853511 19676.637000 17733.792663 15856.629047 17219.377215 11672.290254 4494.097483 4080.689651 27924.670390 24089.213244 27512.585189 23360.962575 21681.086659 19509.421679 18654.241826 14147.204217 8016.127967 7268.329872 7965.735377 28259.291404 26233.352465 23574.571598 25745.153902 22092.604885 19931.566217 11013.491328 6581.403812 7956.337116 6750.079690 -12278.023248 29596.593303 27986.603538 24011.924159 22476.680929 22054.976736 18933.929486 12419.393432 9270.835632 12218.740113 7756.919613 4024.717288 28342.982995 28040.517234 25761.870898 23273.667892 22686.851473 16663.361122 21788.806320 10239.959272 6244.125306 4339.823428 4975.742050 31168.033097 26655.422504 29108.770477 24999.474135 23923.386415 20681.935724 14141.708653 14927.647753 5277.879836 4003.080603 2525.828410 28967.189667 27966.203680 28942.756067 25280.484040 19379.947444 23328.672188 16392.734028 13155.246624 10907.026336 7413.463668 7058.408354 28141.971079 28055.061729 26673.938129 25425.293351 22250.213909 20733.976815 14331.734531 12640.133311 8309.803581 4936.381672 5300.745924 30418.392969 30066.175271 26961.616362 27537.387937 18503.481322 18562.178287 16271.884515 9039.132103 7754.529367 6175.375857 4535.112745 29478.073337 28795.684840 28351.368063 24840.888055 18616.853106 14887.689357 11333.235577 12890.875733 8288.274409 5717.647925 1423.368188 29049.328695 30423.949069 26240.084930 24882.885602 20081.309274 12995.782034 15712.358107 10020.824463 10300.202335 6803.553405 3397.432393 30092.263699 29493.522206 28902.896975 25215.738452 20115.143867 15523.614183 15979.994654 11106.591353 6788.012825 8358.419233 10236.000425 30487.993981 30064.362712 28950.266027 27255.209046 20490.142070 19521.836813 7921.677475 13780.221901 9258.240507 6285.825671 2729.071840 31173.575561 26779.156674 27216.706600 29638.709236 23727.872590 21601.075915 15137.950203 10594.016397 7922.749712 7578.733357 4237.497490 28763.443082 30248.841046 31532.856958 24199.207776 18468.441320 19229.597019 17008.120720 11091.214010 11449.832843 4091.346165 -288.890220 29022.380095 29174.038476 28106.129760 26026.254101 24368.693489 21325.893937 15099.391089 9640.306948 6340.797828 2752.413962 2269.747090 32632.439445 31925.701115 29246.519882 21336.861165 24028.292959 18035.449006 15639.447119 13031.436033 6216.926572 7068.731359 -1880.063213 31408.132850 31411.369530 25117.770083 26072.138633 22766.409700 14020.225207 18995.828482 8041.794966 10950.129627 13829.246021 -1156.938162 31235.957592 31676.513382 30036.107195 30074.709182 21479.173946 19713.799986 15429.879659 10215.060078 9368.977664 6163.575455 3353.769424 30685.110643 30965.265417 29222.396280 27444.144722 25559.996568 19155.369639 12995.453639 13211.950601 8541.379787 3422.507434 6768.914764 32317.851080 28049.197834 29694.384710 26326.757098 22711.427500 22492.788333 20266.073490 11613.026671 12332.719481 7960.639885 8498.442071 30781.410313 31437.843265 26400.313277 27069.671689 22654.935030 19969.215355 16683.478641 11145.346960 9836.367220 8107.165230 8063.250017 32587.664120 30372.999723 29356.919774 23811.964851 25905.447042 17813.519760 14086.934301 14463.475563 10535.771579 4427.171383 6008.613114 30921.703732 30599.017275 26807.039547 26903.500106 23136.288000 19402.130139 16953.914329 15101.228773 11077.458588 9221.379929 11365.037811 31222.470254 29218.031060 26783.175804 26608.338632 25138.552337 22042.226338 19640.011169 12472.678499 11993.773839 9151.475110 2071.778933 31909.994088 27791.763422 27543.351017 27242.399879 24176.124733 21612.672464 13829.163294 15080.408388 11296.107598 9358.774152 15366.426954 31319.793176 29068.024082 29110.721616 25418.778160 24147.527498 15900.376180 18442.730002 15185.261043 13554.627412 8516.604810 4201.171240 30627.840829 29220.157613 25542.072616 26863.276034 23476.234530 18835.911986 17304.179717 14267.888217 6322.436398 10886.415460 9800.726822 30660.380482 25579.124329 27932.079443 24914.528931 22075.032628 17628.822463 16984.344756 12375.609676 12365.835396 9136.786077 4138.842397 30810.511760 29576.226161 22980.140862 24897.974805 19509.954596 23892.476948 15877.357738 11388.411331 12475.762846 1340.584790 -31965.163980 32017.321189 29319.411314 28856.714142 24171.368432 21987.202012 20169.045099 19055.165726 16056.596123 14834.276521 8549.299690 3750.806547 31022.294421 30343.556550 25479.627868 22099.689700 18776.525244 22433.295023 16822.105237 13256.250281 7861.035734 10682.195412 -43.284294 30589.712794 29313.715422 27860.080544 25435.359329 22427.191406 22335.660826 16395.080279 17491.422608 14394.958119 13298.809975 1495.214074 29309.663631 29768.200434 23314.632665 27947.734249 20696.217336 20591.046328 14163.532541 16647.564072 13906.495997 8808.476618 11574.771957 30968.624737 25918.860538 28160.198181 27033.754341 24755.636147 17769.549633 16719.446622 17021.993219 12256.429391 6756.794733 13797.969717 31115.198475 28523.687386 28174.747055 26375.728843 20482.241868 21356.548050 18801.998433 18672.534386 14887.775069 11197.700869 -31965.163980 29865.124481 25769.704514 27294.116619 20411.412272 23249.286226 21628.228271 18210.729795 17435.278481 12010.237370 12063.585899 14034.145764 29092.435942 27384.057294 27029.446125 23520.575545 21864.111479 20657.516704 16786.459744 14655.887074 13572.598433 12486.982527 2999.126196 30995.948125 29693.787858 20542.976913 19619.621000 19603.852029 16262.069668 18650.737643 13475.846031 14918.582708 12866.830677 -11832.879759 26246.600641 29305.109780 26848.400535 27760.094881 19507.365721 17945.236722 15815.095132 17577.950415 14986.730113 12302.033236 15163.580548 30046.206913 22915.265247 23707.116223 25205.410595 28008.953857 15010.396369 24276.317158 14632.008010 15352.008130 10337.738542 14183.564700 26800.223954 27545.119302 30089.372627 27278.029518 20356.360617 25448.762555 20681.181360 15272.812048 13981.489165 15761.265914 11920.815714 28079.075716 28878.221792 24959.241014 27469.448680 24092.018432 18288.830700 25652.807888 24634.821078 14398.967097 13878.341302 12305.974230 12559.379663 17990.529801 17864.142201 14781.952892 9311.225334 16067.186315 14801.784913 12084.142920 14442.823798 11387.848908 9285.190097 8405.008611 5492.307699 -10172.092122 13814.235140 10723.592941 16223.702267 14779.431288 6514.210853 17714.237719 10384.480733 7683.774340 14744.183063 5215.279443 7649.214989 8016.720971 3255.074864 8584.259212 7135.158349 11287.924734 9886.476016 6098.261071 8364.801641 5090.613678 11543.421816 10129.674444 10932.677439 8981.988528 5822.730292 6088.643801 7779.712175 4147.637215 11013.439741 10046.536669 11530.873829 12370.453428 8006.107547 10269.156775 12182.191996 9324.720784 7465.104253 10092.174092 9004.053571 5029.768704 4216.283278 3400.605103 12879.037575 18096.874560 10313.283881 7457.358750 14963.410167 9317.034944 11299.329982 11872.429650 6663.787898 4151.713742 7198.960113 5073.870533 3926.424197 2511.448740 11179.797975 14416.713442 7091.571210 17026.256782 14972.313267 12378.689058 13829.217363 6238.824461 5833.885956 7371.609004 7638.161055 5814.619461 7788.032976 3201.956198 18658.946582 3545.080102 11065.047612 8007.486609 4926.846909 9725.874348 9742.884809 10927.724313 6700.193154 4090.641604 6665.237893 5128.985177 3570.441309 3685.966878 9669.307482 10799.227262 9396.309540 13484.084811 9022.171742 14211.658640 7841.577503 7186.321943 3020.430115 4445.204354 5541.938919 5125.724542 3570.511294 4227.965307 12884.974650 14561.324606 7563.463034 6050.391681 11753.756206 4745.214747 7582.977397 4009.992584 3894.673407 7876.880454 5797.583911 6216.022290 2662.972580 1607.101951 7116.208964 8341.279474 12132.503736 7922.366688 11524.246468 4418.782447 10023.296343 5782.985118 10662.529273 4826.160117 4718.547431 4713.790224 1764.118457 2517.317432 4798.904021 8604.633204 14993.826318 8721.385347 6002.823071 5134.040582 5522.695341 10064.100453 9612.102348 7319.875566 10669.862385 5971.585029 5583.285358 5616.586364 11179.023071 4057.172457 8837.128066 15144.080300 5071.071860 9850.907063 4279.838093 11001.448992 4592.337231 8212.460565 5345.801904 12988.569568 4717.386284 3784.179714 5369.136817 3060.041890 2328.882187 4716.782087 2700.341765 2665.228019 5250.081712 13672.957577 14572.671978 8965.985845 3414.487960 4864.269134 2736.612612 3457.984127 2938.064757 4370.464817 4433.982136 1824.586827 6630.892148 2448.911397 5843.712548 7323.486517 3946.150461 10611.449834 5370.497013 3012.499754 2828.221811 4382.879601 3363.436360 3139.958632 2899.615779 2433.303214 3389.381874 3159.815280 7414.652925 1919.301598 2897.004470 2392.007874 2019.233007 3401.811431 558.578112 2052.177173
</DataArray>
<DataArray type="Float64" Name="Velocity" NumberOfComponents="3" format="ascii">