<VTKFile type="PolyData">
<PolyData>
<Piece NumberOfPoints="1945" NumberOfVerts="1945" NumberOfLines="0" NumberOfStrips="0" NumberOfPolys="0">
<PointData>
<DataArray type="Float64" Name="Pressure" format="ascii">
 23653.497936 23560.912035 25626.969059 23648.305232 26279.869516 22138.030686 26415.868580 24866.043406 24770.186696 23145.186438 24303.479609 23971.359150 26853.920402 26359.574301 24561.983954 20933.834355 23722.582756 21682.334522 25903.333744 25157.469077 24015.816366 21071.805529 22857.553504 21550.565447 24041.727941 23235.077424 21694.674322 20069.061055 22033.935264 21537.322739 20455.211630 19871.628657 19092.990769 19733.283652 20413.006419 21858.216854 20399.163610 19866.720199 20075.384197 19513.699481 19150.028478 20194.786112 17936.855003 18316.777367 18253.856276 19463.335762 17603.263021 17915.823914 18331.606692 18728.867713 20581.411036 21866.315455 19460.220975 19562.753503 20577.290746 22082.754118 19032.241436 19468.033243 21119.962585 21422.836866 20305.409534 20367.790496 19688.698188 20073.094237 21284.207139 21728.413515 20902.527797 21624.784800 21607.970955 22004.517689 20322.187227 20205.329166 22604.158556 21501.202813 21865.500024 21086.724798 23702.201201 22906.516321 21466.356866 20086.328581 22224.794783 22765.740639 21592.002490 23355.281344 19608.653971 20651.725062 18022.724138 19712.053095 19136.185017 21436.837254 19470.110825 20095.999015 22022.913649 23749.952270 21757.102307 22858.549256 20097.101066 20970.557623 20681.387998 21643.101182 22133.834627 23512.999728 18806.833877 21314.203242 17139.775874 18718.822012 22348.042462 24856.628791 21823.972489 23871.591294 22105.149086 22261.264239 24789.654975 23304.809523 22737.329555 21818.480030 23493.334063 23198.220025 24364.128236 24857.586967 22603.600520 23580.019543 22072.293568 23406.649627 22708.302531 22922.383599 24004.207332 24628.195047 24374.103829 24469.654222 24886.782886 24931.243653 25798.648327 25856.732360 23552.750836 24020.632791 23639.330597 25952.966041 22362.849391 23786.167792 23653.116777 25580.994611 23893.771494 26240.782962 25667.283143 26603.447157 27157.364281 25191.385679 31983.955558 30430.991338 26600.631331 26978.355992 22809.156285 23255.928408 25485.861188 26548.931009 26022.961957 27888.945524 21001.694015 24177.149666 25285.304260 28528.811822 22734.008153 25795.094953 24408.552587 27333.207192 27489.210166 28900.273208 26939.565109 29636.942871 21240.644719 25197.007115 26242.650859 28740.657215 29336.416859 29316.080658 29058.690205 30508.412722 23329.607923 24038.098515 29966.556268 33734.094831 21341.225209 24704.207287 24047.567559 27030.541841 26254.817948 27251.191733 25241.625933 26550.434303 25682.054604 28192.380441 26847.215894 27290.580172 30450.976567 30833.461089 27863.675953 29557.952218 26403.061730 26093.931523 28505.625341 26714.766448 26251.976763 25251.971013 27342.261646 26241.554289 26119.936643 24237.402978 24216.556354 23431.954689 22170.297444 21161.332019 20389.452973 19017.076592 16111.388855 14238.579089 12638.575768 9690.176531 8418.521576 6912.746200 2545.476291 632.968037 -1496.672697 -5661.884510 -6088.130641 -3792.051987 -4903.185823 -9468.498043 -9580.438589 -8455.969038 -7623.801054 -7019.260681 -6571.863132 -6233.858628 -5962.441919 -5722.577014 -5489.044584 -5246.298020 -4986.876475 -4709.271435 -4415.843783 -4111.096361 -3800.399886 -3489.147381 -3182.255113 -2883.913964 -2597.504935 -2325.611942 -2070.085597 -1832.128854 -1612.388026 -1411.040830 -1227.877988 -1062.377319 -913.770439 -781.102585 -663.287051 -559.161153 -467.585182 -387.828996 -321.934588 19736.713340 20267.987707 20166.815446 18666.041183 14095.158965 13766.009166 12059.207074 7707.062597 6916.928041 8930.349842 232.773072 2372.118662 -1366.262405 -9903.698734 -6337.520432 -2763.663148 -6379.354594 -11713.437020 -9953.170501 -8408.690863 -7651.317717 -7050.083298 -6595.746028 -6249.424942 -5970.738021 -5725.421119 -5488.357811 -5243.755034 -4983.756222 -4706.438181 -4413.801295 -4110.072244 -3800.432051 -3490.157683 -3184.104708 -2886.440812 -2600.546736 -2329.018554 -2073.724598 -1835.887090 -1616.171041 -1414.771384 -1231.494273 -1065.831191 -917.025675 -784.132791 -666.070610 -561.657332 -469.593284 -388.135002 -312.934995 21274.845026 22662.219980 22982.815458 20592.337164 21887.764542 20675.737657 14461.313946 15486.393693 15466.759034 15513.916940 14046.203236 10676.471315 7281.884236 6785.394225 11219.685772 13535.407061 8661.591458 5511.253893 4692.888270 3121.669677 -376.238748 -221.639766 1154.203981 -3445.699476 -1353.445685 -3321.662697 -2342.466136 -1376.037115 381.649001 7951.592410 5594.651777 -8697.026038 -5482.872451 -1601.157449 -687.503741 -113.901563 218.452439 373.723510 411.890323 383.142938 323.656057 256.217249 193.271443 140.315069 98.691640 67.566893 45.183145 29.580103 18.956824 11.799349 6.823220 22480.450889 22412.469641 22179.771539 21079.255692 20522.186031 18884.173879 16183.806538 15079.241797 15015.592204 14157.422648 12722.590793 10825.654364 9325.389216 8864.511997 9358.029872 9149.411752 7687.693131 5898.099530 4387.303745 2918.610151 1725.157863 1152.906284 779.170555 41.514739 -765.895646 -1406.631814 -1658.758645 -1209.648084 -31.670800 1204.654715 1070.002651 -640.170760 -1600.111239 -1342.917671 -679.083169 -148.950050 183.711162 348.412696 396.352831 375.228068 320.829077 256.353433 194.860524 142.405928 100.753119 69.347849 46.601485 30.645511 19.725524 12.380198 7.573001 -276.807159 -256.334047 -262.585704 -243.600813 -225.860889 -215.744842 -183.070034 -182.005936 -150.161973 -150.426459 -123.012577 -123.438104 -100.414112 -100.810537 -81.639862 -81.982680 -66.106919 -66.398085 -53.313293 -53.558664 -42.823324 -43.028912 -34.260534 -34.431881 -27.301635 -27.443718 -21.670806 -21.788035 -17.134189 -17.230440 -13.494714 -13.573362 -10.587278 -10.651238 -8.274346 -8.326120 -6.441983 -6.483700 -4.996310 -5.029771 -3.860379 -3.887098 -2.971446 -2.992687 -2.278608 -2.295420 -1.740770 -1.754018 -1.324918 -1.335313 -1.004658 -1.012780 -0.758988 -0.765307 -0.571275 -0.576170 -0.428404 -0.432181 -0.320086 -0.322988 -0.238282 -0.240502 -0.176738 -0.178429 -0.130614 -0.131898 -0.096179 -0.097149 -0.070567 -0.071297 -0.051589 -0.052137 -0.037581 -0.037990 -0.027278 -0.027583 -0.019730 -0.019956 -0.014220 -0.014387 -0.010213 -0.010335 -0.007309 -0.007399 -0.005213 -0.005278 -0.003705 -0.003752 -0.002624 -0.002658 -0.001852 -0.001877 -0.001303 -0.001321 -0.000913 -0.000926 -0.000638 -0.000647 -0.000444 -0.000451 -0.000308 -0.000313 -0.000213 -0.000216 -0.000147 -0.000149 -0.000101 -0.000103 -0.000069 -0.000070 -0.000047 -0.000048 -0.000032 -0.000033 -0.000022 -0.000022 -0.000015 -0.000015 -0.000010 -0.000010 -0.000007 -0.000007 -0.000005 -0.000005 -0.000003 -0.000003 -0.000002 -0.000002 -0.000002 -0.000002 -0.000001 -0.000001 -0.000001 -0.000001 -0.000002 -0.000002 -0.000002 -0.000002 -0.000003 -0.000003 -0.000005 -0.000005 -0.000007 -0.000007 -0.000010 -0.000010 -0.000014 -0.000014 -0.000019 -0.000019 -0.000027 -0.000027 -0.000036 -0.000036 -0.000047 -0.000047 -0.000060 -0.000060 -0.000072 -0.000072 -0.000080 -0.000079 -0.000078 -0.000076 -0.000053 -0.000049 0.000015 0.000021 0.000160 0.000171 0.000435 0.000453 0.000925 0.000954 0.001760 0.001805 0.003135 0.003206 0.005347 0.005455 0.008835 0.008998 0.014250 0.014496 0.022565 0.022935 0.035251 0.035811 0.054595 0.055455 0.084282 0.085635 0.130499 0.132695 0.204041 0.207709 0.324264 0.330441 0.526463 0.536196 0.876369 0.885709 1.504401 1.469729 2.762110 2.322801 4.181546 3.226898 4.873687 3.789679 19081.071693 23482.831109 19275.745730 21739.968826 20913.913133 11920.943661 19602.494912 18713.957141 19536.706711 16206.711538 20659.348246 20823.799441 19719.555841 16806.135034 20359.881666 16157.815895 11284.683840 14836.507703 15566.358951 14525.720329 18413.727318 13155.105071 23984.432062 19990.192368 26148.487040 20089.854114 16308.308065 18616.057529 7154.602440 19323.858596 14491.433644 6147.076689 18036.255817 17820.651608 19149.048082 20144.605626 12822.088445 16560.504767 16924.841814 15939.181502 9087.473913 17917.134887 8967.137201 17043.285012 13890.763555 10112.418653 19223.290769 18550.333131 18113.930366 15647.315710 16754.243470 16167.672376 9124.640483 16441.743000 15921.166780 15933.087529 17850.371770 18451.948542 22918.306626 18371.607247 15452.270071 18744.740977 16354.797178 12676.865862 10151.034061 17655.832545 15750.578608 17300.994506 20687.939232 17562.469741 17250.894005 14361.888426 15566.429148 14879.809830 11613.172682 15169.367828 6849.530294 17470.034268 16859.784951 17277.906028 17496.466844 20858.740774 13367.519639 11846.286660 15096.528390 14980.561281 10626.316664 9487.382718 18036.039983 19558.918482 17473.847251 17237.066281 17807.608834 16946.648002 12274.438108 15588.124737 14564.193932 11149.036986 14952.078624 19739.405049 17831.466019 15766.901321 17339.440172 11200.531919 17347.486041 13634.089238 13235.736500 14052.313508 4426.882254 14299.731178 20603.156126 17028.641361 16798.303508 9271.956938 19084.866239 12335.040403 17439.316963 8962.610135 7599.598067 6828.944124 3274.946377 16607.183561 17537.332144 12886.730303 18735.715735 8902.287362 15886.156911 8615.289016 11534.875520 14337.462938 13952.502686 13305.839406 19772.704587 16897.204414 17450.894438 15126.062289 12662.981618 14700.293465 16278.017374 10473.072860 16752.520436 15854.725756 10774.635002 17867.922958 18367.081047 19584.944561 19026.963262 16423.738719 16667.797060 14531.808630 12589.425059 16466.711230 7965.974889 8352.773397 20435.322620 17874.256150 21185.909305 20200.022277 15596.518347 19546.244009 12044.787099 14045.841918 4721.973356 10238.655817 4968.574461 20886.568678 19090.383297 20909.720321 19153.062536 10755.333003 12434.272002 10202.629476 7117.784843 2658.957323 2794.277373 4150.725558 19954.116396 18656.363367 18710.692019 18052.579724 15686.083003 16765.026206 13764.561384 15301.706104 5108.150828 2059.222623 2381.337645 20107.717446 20257.235573 19368.827681 15038.345003 9888.955341 6543.667978 4413.864284 3913.904796 1681.336937 1199.117137 2355.947185 18897.312150 17349.513625 16447.000364 15183.453200 12875.700551 7003.764068 9009.803679 6299.198956 8389.021024 5207.736315 1519.220126 20670.619583 18109.702567 18250.691441 13496.265557 9181.198362 8777.693640 8044.984708 4759.330650 1814.265101 631.015219 2137.797815 22229.327096 20192.641051 19532.938989 16236.813886 11663.348197 3808.945856 5446.749638 2505.461290 1986.361026 2606.112267 1887.262736 18213.689607 16937.232475 15730.125538 15152.150813 12524.557688 3023.387859 4999.472331 2466.399727 4912.023371 1331.618247 2444.042044 19779.955654 19385.967197 17101.347596 11484.749738 12077.060832 10739.573810 2019.698229 4511.844634 3319.885754 3323.002085 2406.635100 19202.498537 18433.913942 15908.314238 12291.520824 5561.788327 10658.040214 12400.398482 9985.968168 5682.507161 1646.664005 1388.181499 19331.892705 16216.763351 14924.742908 12540.575711 11454.254700 11564.609828 7621.596423 3586.482257 8864.827985 3242.829301 2475.526435 21586.326304 17332.356669 16802.113717 17457.954741 14533.262637 9531.244542 8217.840998 3369.020620 8003.782969 8023.910158 2452.911482 19428.521598 17533.798280 18602.178379 12372.028857 15822.201346 6483.890255 11575.831114 2915.453507 3607.845580 1661.565142 2853.977940 19525.798056 14949.826586 11578.670315 13874.914322 14533.799540 15001.145256 8508.591347 11246.586820 2738.594387 1360.699572 6246.229630 20218.184956 19065.576579 16250.684769 15517.745361 16357.926322 11994.456265 4795.430603 7185.248465 7379.407763 5685.302117 1546.981382 20010.080339 19187.828937 17302.798076 10265.138484 11339.641241 9220.591524 8692.944436 4423.464010 8437.353969 6325.162909 2526.114188 19462.574636 16708.815621 19649.913326 15740.088277 12285.728605 6965.916326 9287.675442 8526.447979 6623.300188 2801.686472 2236.670957 22468.797945 19438.222575 13096.923014 15027.356099 16099.041137 12968.075178 11031.848999 7488.445107 8153.535853 7301.413417 404.983571 19467.911762 9090.606104 17958.118379 15771.468625 14534.320979 13083.634177 6577.755940 8894.655660 2517.420427 5350.175648 2667.319531 21907.533085 19566.150083 17266.015745 17316.323344 14267.841364 12945.835551 9538.338026 8645.168895 3946.030426 2135.020232 634.477857 20300.906927 18796.776513 18730.002491 16553.151756 15160.469197 12813.916785 11280.142292 5051.680864 4666.651263 4484.847300 -1258.941689 21430.560553 19841.926534 20044.200415 16260.849630 17092.520049 12685.027659 10623.304241 13968.013846 4008.764331 5354.375613 1752.631925 21263.780759 20671.350394 15531.776562 16882.811850 16719.802706 11942.556069 11997.344529 9396.457615 8555.163357 5874.738118 2038.524351 20064.994521 21098.318223 18182.892015 18784.656868 16908.571781 11336.047576 12741.568965 10245.288253 11164.725730 3874.247807 4903.329807 23069.890343 21271.486124 19639.682550 15035.450680 14078.185199 10853.414413 8908.215150 5348.276538 8051.593969 5429.450224 1531.356126 21054.059662 16861.314312 18646.165590 13903.026338 7369.790154 12783.039027 5688.252966 5628.669377 2033.146036 7330.831177 19100.454943 22867.148559 19649.806915 22420.419603 17479.035901 17083.954692 10257.766507 7807.506883 5857.773482 8395.882692 1974.115786 4201.899716 21599.077364 19544.349216 18701.432336 17226.480560 13430.584728 11370.688765 15821.345288 6915.087640 6347.524928 3179.428666 1450.031927 22854.929354 20926.064279 18453.901323 16158.711312 16536.499127 11533.548742 10933.839340 9450.828856 5092.647027 4381.988196 6421.299959 21842.565935 19075.320564 18520.464163 21594.227710 15768.143962 14183.871694 8895.347851 6520.357756 5682.682847 2885.759149 1669.062052 22730.069276 21092.791595 18746.945778 12794.276908 13360.852462 13109.300462 5132.523664 15259.768846 6030.876571 9628.668001 1860.083307 21418.942546 19562.503579 20510.281136 6553.675862 8309.090274 9157.713083 8164.058699 7640.908987 5013.799060 6849.103547 3217.906546 22593.318063 17459.517254 18312.668051 18104.511864 9759.684462 12455.787337 12485.826346 3259.328905 6065.960364 12241.027270 4111.372559 22824.891918 21960.568989 18214.221005 18651.922381 14648.478413 11832.531169 5585.511188 16838.575078 9236.880061 2098.601405 1882.900794 22352.984377 22391.522149 20620.248233 16003.010704 11641.153725 16021.573539 18036.094864 6219.183925 10423.529785 2760.076125 5305.913628 22767.210672 20185.738840 21051.807338 18024.685255 16660.711575 13541.980459 15209.653050 9669.386468 10646.814953 4868.290702 2340.167377 23357.604636 21180.627415 22505.519923 17980.574296 16975.642891 16741.760443 13396.774678 14317.183870 9752.406411 7530.537695 2578.710310 24579.841583 23438.496206 20187.840949 20200.081005 17891.781580 13900.324780 13915.654629 12370.940094 8004.405562 5903.213156 785.802338 23402.384697 23478.950389 23157.805204 20020.914437 18700.660121 17659.285579 13460.008768 9625.687815 11787.905150 8959.049333 2780.168605 24697.293824 23439.582217 20837.405863 20530.122118 19067.043443 16659.108859 10292.475051 10971.492223 4687.131832 8072.302736 2857.382482 25540.163948 23229.290693 21727.829139 20010.994525 13843.990080 8358.599342 10026.980638 8758.528657 3099.089047 3068.997018 2005.934738 23212.514505 24006.033209 22317.996116 19420.998837 15943.089031 14736.466803 11441.670695 7907.540540 7389.983961 5363.254669 892.082649 24679.897460 22299.207527 21731.909278 18581.515356 14906.107034 11211.079562 12992.275420 8845.364932 5001.910350 4658.319572 -144.438050 24500.938445 23260.864126 17285.945134 15760.700696 16707.926188 16689.466399 15711.076089 12997.291011 11058.263659 6305.371296 4480.618081 26373.428290 21894.091563 19252.959412 19111.460658 18152.914202 14847.821784 14481.435468 14810.105810 10791.703670 3737.007389 3068.455894 23478.884982 22044.688630 21809.141403 20955.184211 19290.720257 16740.597068 15641.083825 12195.271329 6946.618125 6231.857909 5833.134668 26333.878603 21876.682889 20413.560360 21521.259889 19125.927831 16848.391202 9774.329744 5098.317001 6733.805502 4966.985560 30345.042575 25083.610275 22704.032920 19580.056346 19807.874973 19426.249375 16524.782124 11359.896704 10119.682849 9663.551097 5981.091951 2642.486684 24031.363173 24582.362914 23570.966307 19757.251533 19004.540607 13703.330938 18508.061221 9604.136181 3889.649724 1615.030875 2464.223640 27662.458070 23663.478799 23309.637827 21822.620267 20321.573013 17197.244565 10732.243125 13650.305943 4643.871871 2178.249341 690.810299 25140.844149 24060.104823 25387.328665 21681.359462 17238.857180 19512.622060 13887.028616 11129.687304 7969.201024 5000.434781 4788.307698 25152.451066 24910.019751 23250.450809 21185.591035 19080.852076 18263.633868 12362.261991 10322.984048 7383.116404 3464.513189 3956.292495 25249.768204 26684.014906 23341.017579 22914.350771 15177.869308 15843.880703 13466.655714 7122.121967 4967.145493 4787.724198 3334.916571 25291.552401 23577.309670 23637.989323 20665.656156 16382.770919 13293.675240 10054.377928 11258.486713 6528.543574 3495.174774 610.218128 24338.802382 28686.166232 22738.955790 20055.695936 17205.040247 11517.233645 12354.472203 7708.389188 9555.162481 5561.929844 1337.877283 26172.133508 24660.003358 23586.529351 20722.350602 16415.658271 13010.777215 12019.379298 8328.408028 4810.989167 6628.604875 7974.218924 28668.448671 25695.758775 24135.217853 23668.416358 16956.604495 16973.982668 6589.233015 11745.641842 7805.150238 3697.742486 2759.322310 26392.082594 22724.271399 22648.720209 25079.323330 19726.969064 17607.153650 12969.285109 8089.349905 5367.273304 5791.508230 2598.619565 26115.753482 27469.057397 26242.720937 20553.227623 15589.454665 17052.064544 12880.557029 9265.310485 8740.364024 1291.495244 -2299.029883 26475.886031 23725.031703 23140.698878 21721.777002 20290.164478 16015.611044 12776.652857 7299.623954 3979.036924 1011.056771 2050.639068 28332.026965 27121.948785 24383.467834 17795.832646 20726.494781 16481.993453 13873.586241 9824.704859 2956.320419 6670.125520 962.330149 26706.012088 25639.515155 21103.673146 21574.038932 20020.717935 11520.969475 14865.328290 4031.782337 8680.453433 12858.351960 3286.512483 26831.323209 28193.855760 25573.359323 25404.720524 17366.868587 16378.808592 13926.543973 9262.263477 7247.376700 5740.670522 1641.446678 25818.767703 26804.789215 24406.997676 22510.129402 21668.417515 17030.765849 11245.990222 11093.523406 6211.488534 1500.827049 2066.933186 29806.266365 23124.088515 24562.825848 24280.519546 18605.527480 17750.171174 17698.126338 10596.698311 9086.000083 6356.624157 5353.845418 26827.026155 26010.611948 22392.542400 22482.954593 18616.641766 16498.833174 13513.505062 8522.961510 7211.372905 6715.366402 5810.117750 26667.916385 25551.215105 23374.194015 19832.399815 21124.925615 14382.715288 11446.102458 12073.891688 8325.454830 4192.212349 2096.334524 27870.952157 26018.714103 23843.175442 21977.657572 19488.550088 15810.282789 14293.832482 13198.016328 8672.034854 8771.444326 8110.477759 27380.152118 24101.860901 21460.640554 20384.700790 21863.356318 16585.677766 15795.985615 10311.841882 11102.396264 7410.688985 300.618516 26649.619712 23080.534733 22791.042758 21584.581469 20105.172048 16493.328136 10895.459001 13163.106474 8766.020337 6528.888905 12379.211035 25421.156246 25581.473339 25734.189660 22640.442692 20032.852228 14617.244066 15012.137537 11250.090797 10262.196322 7644.921119 128.044374 29248.326347 25021.493235 22638.581272 23560.428379 18724.992627 15267.491530 14976.873661 11639.156471 5724.501460 9348.877944 8958.387399 27108.344182 22715.398275 23887.586741 20074.235116 18757.774462 13414.185802 14653.581563 10422.518918 9400.613924 7146.663132 -1237.338256 29159.617879 24381.736143 20183.136680 19500.968082 14506.063345 18252.353385 12890.376764 9484.220113 11646.681424 -914.261561 -1760.297165 27266.841941 23485.953816 22680.862930 18569.565237 19846.673351 17979.755001 15942.421796 12587.988085 10673.069892 5242.686349 3316.916515 28139.138254 27077.629450 22199.572702 18508.656476 16041.387707 19843.202485 14370.785660 11691.361206 6183.813803 10712.921757 -1189.643903 28172.837841 27765.792490 22454.694285 22289.811480 17828.923194 19036.274807 12606.547358 14853.093509 11207.317236 10473.843368 -249.872824 25908.505262 26844.621606 17941.473065 23538.254195 16855.672297 17975.010892 11981.074644 12851.682957 11148.911341 5313.475610 8150.807914 25134.514306 22591.955928 24600.176315 23577.906478 20672.693023 14513.563290 17179.506938 12807.517204 11051.026268 4491.692693 12142.256976 25519.279876 23084.025816 24000.394675 22326.066819 18534.067069 17169.271460 12381.884121 14279.247211 13053.387139 8757.936759 -1760.297165 29140.906152 22380.258480 25218.225055 17319.749643 18224.812318 16997.978224 16024.472836 14765.876383 9375.369981 8726.942130 13582.029286 24815.743820 23873.410910 21613.356788 19980.558782 18503.934043 15848.170672 13091.474913 12554.239897 11428.069765 8772.501299 2519.596678 24955.259679 25057.700972 16701.088884 17252.278966 16540.595772 12595.354657 17345.138690 11418.502176 10203.643486 9706.675560 13332.805021 22999.124512 26103.770185 23338.381680 22857.410746 17023.266789 14161.937709 12532.008758 13661.300433 12844.533554 8672.865592 11794.091360 25149.668403 20149.943190 20647.042329 22299.261203 24122.324905 12807.129327 21616.574547 14022.283011 13147.829754 9685.774723 12107.195593 23833.907321 25039.019661 24369.145338 22984.753579 18477.213957 23048.954997 17595.055371 13575.066420 12932.991473 13235.471791 7516.039201 23055.130151 23033.695932 20618.008652 23224.498761 19773.267650 15208.394637 22998.604304 19257.905414 10559.549461 12496.083097 8651.725655 14687.033988 19140.002233 19113.798290 17519.653984 10461.614174 20135.699395 17550.447412 15251.181644 15747.209987 12478.572482 10654.845486 9477.908495 4864.335959 -3800.119111 14277.370946 12945.487275 18171.349829 17163.776722 7520.324737 21232.134316 13693.124065 8963.647570 17797.210161 4691.920304 11483.862486 9421.505867 3358.640791 9492.022857 8571.279796 13339.911696 11406.364095 7521.721681 8085.021791 5433.525902 12065.022725 11812.610575 11054.186078 11679.360912 6175.963524 6961.784738 8747.827621 696.203132 11756.742496 9678.079833 12768.270404 13435.580490 8097.391598 11728.321711 12366.235678 10329.261285 6836.675627 12053.070662 9568.067743 6062.489235 6281.682605 5151.311667 12534.934960 17952.362563 10068.397976 8963.405593 14520.550771 7573.959564 12183.890849 12010.391478 7248.622497 3030.975808 8508.218159 6446.931880 4296.424221 4091.900621 10626.207455 12256.700155 6575.398447 16810.706157 14256.340330 13094.348427 13094.172264 5591.768705 6394.859354 7766.371425 9138.510981 6731.441280 8393.283863 2617.827246 17349.468771 3390.338935 9859.643924 6190.245202 5683.982531 9229.740242 9095.770365 11364.239648 7490.666165 2554.308532 5646.239487 5771.876072 3604.086200 3201.619271 8001.397450 10722.534609 7813.405721 13045.760558 7986.685286 13037.452286 6944.564002 8498.920677 4172.409907 2371.326429 6023.398630 4634.185083 3444.461436 6495.519037 11347.851301 12491.929086 7412.912061 5949.518083 9973.033020 3735.626823 6867.074091 2854.292106 2925.910496 7260.377889 4574.206735 5972.867392 3267.525546 -551.156131 5646.808356 7550.798884 12143.734584 6927.630776 12141.290005 2721.672195 8677.177234 4459.666647 9229.574205 3478.020345 4569.921032 5599.309547 1593.848057 3505.922790 3618.714632 8324.520644 15031.577743 8094.061801 5695.196224 4425.004018 6169.691666 9329.265242 8620.552882 6670.055106 9945.364820 5296.318649 4006.540146 4022.600870 10900.377034 3646.444645 8414.597416 14510.419072 4580.296649 9786.735212 3327.397109 11713.702324 4280.648440 7470.879023 4655.781437 12303.747532 5916.206858 4022.235894 5667.243158 2860.775032 2208.570505 4590.997359 1184.972420 726.344850 5396.232752 13294.054080 14892.506321 9432.546933 2643.285135 4440.651350 2674.765144 2914.665286 2379.812069 4633.695035 3806.499636 1142.063095 5528.537315 1668.193638 6572.769273 7219.026421 3311.949043 10043.186238 4096.542251 1989.572400 2315.516680 3960.673037 2327.910517 1789.998232 3123.981855 1069.644091 2285.443726 2619.167201 5384.621178 558.040996 2793.964263 1404.227246 964.265978 3409.299289 706.756897 141.325573
</DataArray>
<DataArray type="Float64" Name="Velocity" NumberOfComponents="3" format="ascii">