<VTKFile type="PolyData">
<PolyData>
<Piece NumberOfPoints="1945" NumberOfVerts="1945" NumberOfLines="0" NumberOfStrips="0" NumberOfPolys="0">
<PointData>
<DataArray type="Float64" Name="Pressure" format="ascii">
 17146.284368 16669.684929 17628.529661 15746.980134 18350.618017 18253.083185 17210.572732 17945.034444 16012.957504 15815.206835 16385.841342 16276.804169 19818.968272 19548.127191 20823.817582 20550.607937 20414.215802 20735.807952 18775.824060 18929.993017 19404.652914 18715.086366 21371.096394 22827.489805 19573.518145 19987.042360 18300.738980 18913.409030 20043.507844 20654.215365 22129.925273 23115.839877 22567.975196 23218.717002 20794.297119 21851.514681 22677.435675 25715.637135 22987.948279 24154.938294 24608.290099 26833.183923 24145.739044 24271.084655 24154.683210 24886.368088 26500.264506 29016.454401 24072.781245 24980.572139 25733.023637 28876.919340 25269.126055 26821.987843 26917.485618 31044.937772 26623.553220 29372.782321 24598.739781 26416.219675 25472.681462 28431.708631 24660.309770 27193.452754 25764.667841 27406.528985 26156.555986 27576.202514 24427.877000 25512.836569 22966.287535 23215.221757 23928.724713 24610.900463 25478.547457 25360.255697 26043.956242 25331.039436 23838.497884 23636.074392 23973.247299 23291.800494 22500.935694 20418.388433 23318.655710 22689.725485 23267.783916 22724.143403 23300.970157 24043.510052 22118.839419 22787.534552 19523.177626 17889.372289 22226.346383 23839.365945 21602.622427 21407.700292 22983.800316 23554.784682 19188.741921 19979.633900 18714.294199 20115.358209 21036.714252 23205.611193 21307.773019 21817.078151 20482.979104 22769.331093 19382.809183 19753.808398 22357.948159 24282.568316 19052.090947 19940.614458 20124.512748 21710.089860 20253.897083 21256.817667 21336.641701 23694.595470 19516.722834 21286.826821 21236.082241 22819.442116 23181.257220 24961.725840 23750.165173 23150.154306 25413.281405 26229.352983 23447.365388 23605.449226 24943.435712 26607.824761 24776.343051 23657.046020 24351.336908 22037.877869 28004.909228 26898.110523 26491.757920 26461.878299 23975.984172 22692.552980 24849.102520 26677.192823 24232.089489 25884.324838 22755.601779 24489.869419 22454.575961 23845.494783 24681.407626 26619.649700 22415.937007 23513.100750 21528.937279 26059.242630 26415.340494 31045.440642 22758.148392 22738.106279 27937.522660 31633.919864 25462.441885 23852.859155 27449.447908 25977.682597 26251.161893 25621.256527 26399.622622 27343.261583 23867.540482 24392.023994 22594.652956 23293.251000 20096.493672 20473.687565 23121.954069 24062.667259 23571.588793 23651.924130 22136.137987 21884.544543 23796.357508 22713.990980 24402.358998 22128.349022 24325.424284 22885.533631 22543.323931 22350.131512 24004.138786 22655.582886 25296.940131 23301.612204 24710.807610 22041.865604 27125.458550 23660.219591 29143.965679 25662.852139 29679.688848 26562.046656 28659.997344 25652.396835 28456.968923 26740.110491 17072.503653 17468.449576 13636.964763 9740.770045 8223.770963 6106.916029 3421.961135 2762.558159 2759.947357 -666.003643 -4437.457701 -2829.115667 -627.730679 496.538207 -3680.508307 -5545.498831 -3903.903831 -1927.588694 -3680.887772 -8029.535728 -8617.844702 -8256.763558 -7917.753221 -7553.199197 -7145.177720 -6699.539223 -6226.354525 -5736.227020 -5239.339706 -4745.058168 -4261.691090 -3796.330053 -3354.749788 -2941.367796 -2559.264968 -2210.264133 -1895.057001 -1613.365286 -1364.120079 -1145.644520 -955.827570 -792.280250 -652.469230 -533.825733 -433.830032 -350.073497 -280.301406 -222.442494 -174.645764 -135.432270 -104.683078 16397.661695 19271.479645 13996.425916 9010.213962 8359.919355 6234.450249 2830.590574 3327.807892 4280.855943 563.458899 -4519.441189 -2804.507483 -31.269066 561.037255 -5430.418065 -6936.347602 -3766.369765 -2849.725134 -7295.886734 -10185.141394 -8715.853179 -8225.948930 -7907.451896 -7544.659841 -7138.179806 -6694.551223 -6223.506364 -5735.441654 -5240.439423 -4747.811394 -4265.835938 -3801.589579 -3360.844585 -2948.027605 -2566.239101 -2217.329877 -1902.025316 -1620.083557 -1370.472145 -1151.548503 -961.232169 -797.160155 -656.820220 -537.659874 -437.171248 -352.953485 -282.754934 -224.495480 -176.254976 -136.120776 -101.270091 19390.147054 19991.948537 18911.641936 17783.763293 18275.361135 13873.896886 14449.967007 11544.135269 8611.850844 13343.452605 8698.005944 8413.409012 11028.926023 12506.716128 9891.631859 4234.339413 2895.066509 2090.448170 1551.107356 1169.130281 889.548608 681.085153 523.958956 404.604288 313.301055 242.974993 188.464048 145.997528 112.805837 86.830949 66.518523 50.673439 38.361580 28.843485 21.528979 15.945248 11.713454 8.530870 6.156733 4.400728 3.113494 2.178718 1.506585 1.028338 0.691817 0.457816 0.297134 0.188218 0.115268 0.066662 0.033317 24204.995362 22843.565419 21690.888863 20686.632646 19981.449313 17402.014093 16346.244190 14477.412073 12275.383361 13048.464513 11431.366966 10545.232519 9581.850717 8068.917351 6072.487147 4257.883318 2978.814469 2146.820322 1586.168119 1191.764180 904.997682 692.098159 532.012027 410.571210 317.758474 246.330969 191.014365 147.956006 114.325443 88.020424 67.455428 51.413893 38.947129 29.305723 21.892549 16.229766 11.934747 8.701802 6.287775 4.500390 3.188653 2.234903 1.548201 1.058867 0.713985 0.473736 0.308429 0.196122 0.120742 0.070687 0.038281 -84.486713 -75.452798 -79.038469 -70.833170 -64.643469 -60.448508 -48.631242 -48.240281 -37.254680 -37.394442 -28.514871 -28.702712 -21.731233 -21.893094 -16.477255 -16.607406 -12.428160 -12.530898 -9.324812 -9.405209 -6.959637 -7.022134 -5.167155 -5.215436 -3.816287 -3.853358 -2.803896 -2.832189 -2.049376 -2.070840 -1.490145 -1.506332 -1.077931 -1.090066 -0.775744 -0.784789 -0.555420 -0.562121 -0.395649 -0.400585 -0.280411 -0.284027 -0.197737 -0.200370 -0.138740 -0.140647 -0.096861 -0.098234 -0.067289 -0.068272 -0.046515 -0.047215 -0.031998 -0.032494 -0.021905 -0.022254 -0.014923 -0.015168 -0.010118 -0.010288 -0.006827 -0.006946 -0.004585 -0.004667 -0.003065 -0.003121 -0.002039 -0.002078 -0.001351 -0.001377 -0.000890 -0.000908 -0.000584 -0.000596 -0.000382 -0.000390 -0.000248 -0.000254 -0.000161 -0.000164 -0.000104 -0.000106 -0.000067 -0.000068 -0.000043 -0.000044 -0.000027 -0.000028 -0.000017 -0.000018 -0.000011 -0.000011 -0.000007 -0.000007 -0.000004 -0.000004 -0.000003 -0.000003 -0.000002 -0.000002 -0.000001 -0.000001 -0.000001 -0.000001 -0.000000 -0.000000 -0.000000 -0.000000 -0.000000 -0.000000 -0.000000 -0.000000 -0.000000 -0.000000 -0.000000 -0.000000 -0.000000 -0.000000 -0.000000 -0.000000 -0.000000 -0.000000 -0.000000 -0.000000 -0.000000 -0.000000 -0.000000 -0.000000 -0.000000 -0.000000 -0.000000 -0.000000 -0.000000 -0.000000 -0.000000 -0.000000 -0.000000 -0.000000 -0.000000 -0.000000 -0.000000 -0.000000 -0.000000 -0.000000 -0.000000 -0.000000 -0.000000 -0.000000 -0.000000 -0.000000 -0.000000 -0.000000 -0.000000 -0.000000 -0.000001 -0.000001 -0.000001 -0.000001 -0.000002 -0.000002 -0.000003 -0.000003 -0.000006 -0.000006 -0.000009 -0.000010 -0.000015 -0.000016 -0.000025 -0.000026 -0.000041 -0.000041 -0.000065 -0.000066 -0.000101 -0.000103 -0.000156 -0.000159 -0.000238 -0.000241 -0.000356 -0.000360 -0.000524 -0.000529 -0.000756 -0.000763 -0.001068 -0.001077 -0.001474 -0.001484 -0.001975 -0.001984 -0.002550 -0.002555 -0.003137 -0.003132 -0.003591 -0.003565 -0.003631 -0.003574 -0.002739 -0.002672 0.000058 -0.000140 0.007205 0.004409 0.015933 0.009690 0.020307 0.013149 16304.685288 17106.825288 14624.734330 18973.192484 16361.742737 10942.669880 16199.888011 14867.894546 11683.513618 13064.151950 13555.460869 17660.658535 15232.879540 18576.162833 16685.970014 10183.306433 13687.799454 13723.213175 13004.996842 12019.381823 15299.884214 11968.545737 21326.502836 20332.206714 18199.995287 17597.391534 17882.137576 20440.748020 9426.187196 16772.365472 17908.316508 7425.271805 19235.422636 19548.695542 21943.431168 18957.263009 17213.596549 18358.124687 17123.989342 16161.953695 5039.088418 19391.193024 14684.083380 17379.504458 20388.537573 12569.738647 19892.784143 20489.706065 21447.164912 21296.674625 19234.628755 17388.765825 12314.330531 18251.198524 17293.237316 20665.490419 23500.236484 25175.112559 21878.030798 21886.037143 18149.815512 20929.941353 23203.757784 14697.663372 6799.935265 20861.842684 21627.960253 20162.023586 22258.117615 24253.295649 21652.183564 22022.172412 19742.963178 19461.797040 17489.209957 21824.212073 10605.440112 24803.036910 25145.397150 24968.799009 22266.171520 23244.577133 19690.708085 14128.245686 20356.185520 18475.175427 20223.736862 13769.668053 24495.012249 28062.994037 22815.480655 23512.877164 23517.212929 23849.005851 22748.965293 21982.192253 21916.658525 17348.822476 20028.703547 26486.249253 26334.712241 23134.734639 23276.659456 19166.218829 25697.138020 19152.516159 22026.329203 20064.247543 12566.517662 15603.102707 27500.097818 25219.983328 26117.790030 14048.793197 24800.243425 17256.734373 19522.672361 14898.714242 13708.925293 10980.042121 12311.803237 25206.091394 23798.478194 22489.699834 25923.520764 16587.649327 22863.934191 12930.301381 18066.875214 19905.688065 18257.288214 13214.535446 26728.892217 25322.101965 23302.164890 22152.097016 22137.510244 23785.765856 20342.597410 17558.737014 18942.099231 16231.955466 11639.416649 25953.248215 25051.118620 22601.400496 22583.028412 23338.706807 20100.610806 18302.993004 16579.601099 17829.353827 7458.149048 4964.563327 25969.910339 22574.815593 24899.604252 23473.505256 21271.919320 20515.085392 14921.465358 11813.538881 6724.839642 9789.004438 3384.697280 24505.384737 24440.626900 25275.860173 17320.860189 12266.450142 9689.848276 12551.446918 8017.147019 3658.816024 4544.183775 1054.067603 22663.836234 23108.917673 20151.933465 21774.520004 18664.906335 19092.399722 13292.520995 16050.294572 5004.095100 615.433286 2377.182050 24785.298839 19883.889188 19388.465746 12760.673600 8705.528677 10007.620445 8060.311091 1171.835689 1343.775512 1523.399077 127.451960 22668.117425 19875.917336 18362.384721 16521.791887 15927.251659 10286.998398 6602.543363 3781.149367 6118.672671 4082.014346 4528.880105 23166.661743 21158.346232 19989.810095 15579.529839 12227.496338 10898.960024 6569.274053 6722.778052 503.740793 2095.764028 2505.285078 23432.144043 19181.412186 21092.431619 17329.896193 12334.278121 6517.994721 9424.983173 -664.696914 180.193369 711.850084 216.806956 21400.842197 18422.766536 19732.548123 17630.151560 14082.071418 5386.309567 1486.016983 2573.605712 5923.833882 510.461687 1699.105861 22087.925103 21690.110694 18658.271415 17656.017630 10632.941767 11466.852836 6747.131326 2229.117500 2194.094456 4865.589730 1807.571264 19585.698731 16223.113557 15294.886093 14026.390749 7780.772413 9711.174372 10072.586155 7238.318025 2295.628930 5013.203370 -407.044813 20934.900574 18405.593267 16498.956790 14198.105611 11702.245890 12501.851461 9650.593166 1471.875452 6791.481087 2609.911070 3552.167945 23265.624994 17390.136352 19226.456763 17812.946730 16353.432050 7668.273792 10376.967519 4326.764583 5372.703906 6068.368717 859.743367 21469.859095 15952.197221 18685.561975 13469.752443 16987.118492 8711.463337 13015.218767 2723.390041 5322.929012 1788.997787 -372.385633 19295.917129 17823.956284 15375.724147 16167.491615 12761.885812 13364.596431 8180.661473 7523.830458 1678.684399 4981.493288 5658.270285 19423.088115 20012.775067 11964.535488 15124.284138 16341.052764 9525.851570 4136.922448 6370.619217 4937.107041 5709.640002 1329.126748 19237.445242 16816.403902 13031.333304 10752.300246 9356.744303 8155.428976 9573.488950 6659.726679 6587.945048 4043.613385 3019.075246 20332.065178 18351.930518 19172.309430 15565.936863 10529.908654 8618.065116 8496.257859 4956.332367 3349.466543 4813.976435 2491.975347 20248.802250 19153.802962 11893.032276 17312.570954 13146.282019 10921.050908 9066.983302 6227.924357 6888.864260 2936.432535 3326.620003 18365.622498 11522.550335 15471.222578 13460.740537 9903.565581 11195.985379 5821.587745 9185.783670 1812.048253 3350.425062 1451.959111 22102.950409 19297.313638 18548.843034 14963.678283 14201.870053 9082.813790 9397.126189 6071.908972 3507.465124 1798.416243 2501.419375 16490.512019 18625.214863 16008.494983 12811.066657 12221.716097 12399.790392 8117.222917 6256.198910 1002.954481 3617.711058 2652.720252 21528.864468 18179.263773 15125.049087 15611.213106 13534.457555 11089.141254 9101.548614 11935.164688 5798.487859 3282.274003 318.589194 20847.249325 18103.136804 15341.557543 14652.612489 11961.324892 12083.541418 10302.468650 8194.946019 6099.963763 4572.407774 9296.378862 18593.633747 18667.809866 16411.840763 15975.289217 15035.556543 12051.298750 11949.006330 8687.771448 6899.179404 3362.249795 2883.395359 21479.075281 18075.395911 17730.743549 14111.223539 14830.757654 8666.879607 7888.662225 5289.406512 5486.340469 3069.189917 -502.697793 18141.564138 18233.392435 16919.606131 12321.213848 7914.158703 9554.949192 7344.776818 5517.645770 3244.161059 5233.096455 15028.524069 21114.849111 19316.367280 17564.218166 15326.483848 12777.340351 13167.386636 7600.026200 4886.624199 5838.267013 1805.934891 4318.359728 18120.688442 20163.696644 19614.430287 18174.398931 15078.034437 10567.670921 9559.294576 8422.225648 7611.257055 3251.882254 857.627688 20160.270689 18415.900063 16717.499272 17166.770031 13922.513253 13086.150666 10209.902870 5752.940099 3655.012454 5547.204309 5148.163611 22227.285184 18909.205085 16815.547368 17126.547917 14132.694059 12680.395153 7952.404477 4699.810464 1383.989443 1216.956720 2161.080972 21940.250395 20815.834729 15676.025957 14053.670785 12917.587186 10950.049205 6590.058394 8135.945967 3337.282259 5570.821578 486.449009 19337.122100 19376.924543 18447.889958 11009.241610 8934.971324 6934.142054 5855.737679 5767.571315 3584.637542 6026.269054 6497.163749 21228.098220 15918.777007 15616.506188 15950.521570 11169.066475 10779.883912 9463.589128 3668.451667 6354.314832 7409.323290 3492.369916 21644.924092 20346.995403 19172.623423 17312.144162 13117.717996 13219.651809 7188.398303 11608.070685 5313.990105 938.677616 1025.470573 20733.465721 20862.455342 19802.088012 16162.914234 14541.859673 14168.566051 12214.629874 9249.800502 8049.013011 736.244342 3187.026895 20948.660364 19010.618272 19512.350777 17010.448015 15940.528926 15650.732808 8922.111347 9731.238790 6321.150547 3484.226378 1869.709175 20446.003972 18692.685383 20229.604204 18324.060212 16360.985474 14325.091187 11783.825640 9512.237853 6766.985923 5564.577573 -1341.382502 23332.084364 21001.286409 18095.792265 18986.307848 15432.216690 12727.646047 10371.512271 9431.202423 5498.556053 5618.784440 -4094.799930 20884.383200 22006.454301 21484.741396 17370.357193 17022.751413 14215.346486 12111.339638 7396.234775 7749.802829 9418.629973 2268.746549 23066.073251 23226.488573 19656.709103 18822.692715 17221.839228 15895.064002 10665.375118 7793.856791 6562.772770 7997.618823 559.182154 23619.572114 22272.893635 19853.407547 21114.564357 17421.383549 10802.580487 8680.745654 8108.466325 4418.107871 2889.106068 -5198.824551 22569.067280 21945.361708 20732.816374 19403.299846 13961.783476 10245.791856 10867.909181 7875.357106 6901.401122 7631.747775 5922.975577 23781.231778 20511.113150 19784.462377 17170.106717 13007.164811 12959.444812 10313.425461 7015.773232 6426.033806 4348.075574 -670.517925 23650.929514 22520.570490 16631.150847 19161.519461 15362.534374 15153.189763 11877.506080 9741.468263 9617.465341 3324.167040 3848.286790 24854.528171 24736.250458 17000.842881 20234.824964 13765.449524 15064.134468 12870.117987 11082.131363 7622.401588 8541.646290 2973.258728 23552.021474 20610.028977 20215.260066 20731.118787 17395.603680 14941.564590 9793.182708 9984.966924 5354.831538 7464.331193 8824.246763 22975.590427 21286.187629 20375.898665 20309.454925 17687.105645 15499.860206 9677.812784 6277.382828 8728.338003 3565.443754 -17684.794913 21821.520623 19383.401168 21120.745373 18809.986827 15652.944387 15857.979003 10634.922537 8226.299466 10089.101847 2739.772680 -3605.209154 21445.802160 24389.734477 21159.792574 19409.415390 17676.011674 14918.642720 11449.233789 9107.373564 3736.309373 3556.974985 6112.058981 25467.545252 23762.844432 20720.198980 18729.714081 19849.741444 15945.007011 14657.305345 10892.270023 6683.458347 2846.164002 1510.856665 22320.514732 23806.526985 24820.118796 20517.880324 15674.531005 14326.742525 13941.534588 12364.686949 9331.287322 5084.676786 4025.301758 23432.842492 25922.433310 19507.987195 20020.540010 17490.293251 18510.109867 10919.011749 9087.759908 8150.280550 3842.071765 -2445.123027 24524.421540 23542.022612 19147.766635 19780.343183 18988.098393 13062.453241 14148.506507 9838.685933 5123.405974 3248.461480 19415.727238 23825.892571 18364.323312 23555.574705 23118.559678 18101.566970 16750.998727 10945.825473 13478.211200 6033.327311 6200.280938 5394.037507 23658.606401 24086.900900 24436.239792 16441.526292 15190.783767 17567.378248 14359.973509 13408.859472 11669.831582 6720.287981 5165.371416 25368.141526 22199.429039 23969.804309 18862.179935 21499.741115 15316.953753 15470.655533 11186.702688 8472.928215 6654.273038 922.206471 22551.555054 25053.743860 22507.664210 19236.965217 23251.748593 15683.404903 9941.769474 10618.964124 7369.272782 4970.791604 1864.001892 26228.058833 24373.080682 18078.189081 20881.439105 16210.268125 24442.943487 13411.333855 6569.626868 6529.134428 8051.567814 4995.629357 24076.569730 24037.604262 23696.026997 24871.153638 20415.838899 14884.610335 18239.671624 4060.050627 14893.954452 10480.225863 3341.555422 23236.185196 22971.232507 25126.230460 19792.710087 18586.663484 13740.520862 13280.944380 8720.792954 6178.209415 14600.660998 4636.211162 26157.347345 25448.655255 22245.988036 18896.222052 23971.844398 14454.303635 11850.152642 10627.263798 8779.166189 11287.313274 18495.781213 23255.614691 25507.557268 23432.813690 19994.906747 22732.035132 20911.057312 19661.367418 11235.880530 9793.534306 12412.228565 20630.811736 23534.467532 25450.364512 23028.530371 20964.595390 18791.925964 14917.095814 11013.046824 12957.615448 9339.046293 18562.477949 25765.541940 24967.625752 24731.844237 22569.367539 20399.719065 21767.233156 21230.548229 13314.959073 9044.077694 8557.492509 9142.031301 1634.047980 25223.331966 22258.544150 22294.903888 21225.827197 19918.099624 18813.233421 11888.963733 5784.629877 11680.584739 14714.374336 4789.638484 24312.015091 24693.304544 24086.313772 21969.164791 19956.403942 17852.641695 14502.719208 13233.747616 11910.773640 10117.924683 9665.981381 25552.588416 22873.176131 23852.755898 21656.006639 22080.900194 18619.907221 17532.688242 9345.386262 14270.569015 6656.020904 -7348.832292 24967.720942 24892.335109 23499.044036 19743.617993 16453.517814 17803.482662 14835.094963 14141.737256 13556.213340 10678.373840 -14530.679354 24404.929528 21362.730050 22464.979783 22670.013709 20648.125069 17501.276593 14815.381906 14088.868116 13907.802537 12244.141834 2242.161153 24565.991431 23358.095601 20137.941113 22518.092138 17615.276007 21239.294503 13861.695534 12072.010231 13833.916647 14527.420913 -10664.657901 23118.109442 22388.202172 23786.060422 20433.790689 18524.933656 18316.740690 19396.815495 13312.447530 11098.900715 3465.427429 14786.425077 24442.086056 22783.557865 23069.201817 23275.336044 20153.522686 20161.089243 13148.525302 14825.709267 11885.202543 2117.800049 6499.880867 23369.566999 20842.496408 22249.694802 20052.903421 20880.055551 17877.343783 17152.200622 13536.480518 14164.663498 6028.781132 9126.207368 23334.427460 22401.293156 20678.942379 20395.986690 20703.613036 18127.178045 15150.965045 14061.894251 11289.483319 3809.849104 -14768.119067 23942.263670 23346.237891 23419.121081 22279.344521 21694.841352 19418.653634 17787.160376 14024.063274 12469.434437 14596.284792 -1808.091546 22442.221057 22629.290634 23388.593130 20313.030782 18926.992572 19696.661902 15205.724349 14265.831056 9569.589702 6598.344711 7611.642034 21894.212656 22311.123940 19809.197293 20521.497514 20021.784739 20492.013066 18847.017394 15009.717019 11138.358231 10923.075567 11132.675021 22875.170390 23302.371594 21746.311676 21881.994548 17235.097283 21717.163117 16840.463051 13398.898806 13917.183136 10434.957692 10829.262505 23114.292655 20931.035659 20658.194704 20410.501721 20062.301600 17754.360099 16947.044917 16003.002676 14719.614522 13174.878544 15841.034348 22264.125886 22458.279936 21531.378476 21609.486850 17545.029392 19262.887830 19203.842760 15698.475886 11636.256902 14027.816277 5806.352148 23042.552363 19872.466194 22673.140118 17998.587018 19852.238961 17995.784422 17450.867532 15613.173587 13693.879537 9717.481110 14310.405703 22541.645601 22646.340026 21855.876026 19982.991764 19263.335471 16833.856889 15237.589649 10032.052699 14930.219166 10431.414350 6345.420363 20604.932045 21231.946828 16564.376982 17090.538637 19618.411836 16140.459252 16919.356536 13776.959770 14472.711171 9427.971982 301.884516 20697.638279 22276.989914 20781.400728 21633.882501 17927.144181 16248.150627 15919.278949 12975.501855 12535.248141 6976.707099 10133.089467 20796.605962 19190.803332 15102.149763 18737.208295 19544.132824 10405.534179 15329.135103 11484.131291 11284.226670 10932.090835 10804.812483 21040.872532 26030.069689 22919.403329 21328.145278 15235.170048 18163.583938 12945.799832 8547.541096 9310.100750 8234.160930 881.671016 21998.852843 22610.510920 16710.043461 18811.938410 12178.723748 10776.466982 17127.035960 14991.587839 8897.247296 3676.227104 8338.869080 6479.741323 16410.086054 14426.741597 11722.284303 6011.061194 12096.977920 11835.017627 7798.282276 8976.041741 5615.366135 6559.939544 2221.865926 -1834.076334 639.777788 14193.919829 7030.882991 16290.337333 14816.746596 5828.250683 13131.987711 11740.151869 3335.510769 8256.157233 6980.048626 -428.678320 3779.782583 -0.569131 -2380.873798 6645.296187 13589.657426 11037.838055 8472.710939 5994.205704 6726.844748 9983.333042 10009.018446 7453.818352 5403.794006 1574.977388 5150.732887 2659.272721 2788.687584 15184.603088 12961.664341 13733.915745 16517.577249 8796.165738 11392.003148 15483.613217 8926.986045 4724.258710 6913.736571 7987.063314 1482.935120 1140.304761 2543.704379 17033.435452 19230.089702 13962.172138 8920.155616 20061.509645 16017.238807 13708.626187 11741.805069 10015.723811 6558.953797 5656.869330 8204.256592 5250.218512 7269.956101 13496.832318 18755.968255 11023.138780 17872.777266 14624.941793 11433.517447 15184.915209 7833.012545 10646.082618 11202.116857 12487.386001 9921.124888 4979.500491 5939.703087 23568.125108 14112.124698 16786.326024 14102.884447 5722.937397 7088.514035 13461.797612 13511.464945 9505.422701 5016.214522 8299.308757 6876.209127 14677.811782 -2280.311803 13835.822603 17879.581626 14725.220800 15135.974465 7995.474729 16370.509125 13082.265809 12530.293767 -850.343494 6788.982278 6906.386850 4445.323591 9356.864182 4671.283638 18116.785780 15106.534398 6840.112286 12460.676613 17177.519012 3194.225918 8516.450733 10290.351532 8224.445511 12897.492659 10276.452292 6492.315669 -486.357347 12477.713956 14627.744879 10118.511954 11581.719417 8006.543246 13418.266910 8513.922779 13415.664924 5596.064124 10549.655838 8717.050675 10048.886743 2711.195445 9361.316522 2630.308389 3644.547381 10566.610603 13487.346522 6732.720469 5974.723675 7074.143454 9231.834476 10175.355139 11756.026046 7583.349683 10759.028525 4775.126266 4125.546094 458.939634 15224.294801 1133.545365 9615.877701 15515.082382 6881.417362 7921.984674 2336.872484 7981.007328 8510.972684 8833.543060 7568.142909 11662.365748 5772.615524 2313.051524 8608.365747 1404.006753 1841.147965 3998.348914 1325.910881 4400.290190 8800.213217 10701.915998 11354.532487 13465.002091 5142.064322 7059.096713 1481.682218 8743.188910 1730.630483 3955.475208 3853.031985 1651.936740 5098.337807 2995.073446 5145.303275 6361.289446 1965.169033 8022.993605 7703.383213 2642.430540 6571.843770 3291.982564 1043.314700 3105.990083 915.718225 995.763221 889.423712 1717.381956 3640.613804 1129.795674 1599.969630 2921.833630 3459.487982 1404.413427 1702.332965 7528.069642
</DataArray>
<DataArray type="Float64" Name="Velocity" NumberOfComponents="3" format="ascii">