<VTKFile type="PolyData">
<PolyData>
<Piece NumberOfPoints="1945" NumberOfVerts="1945" NumberOfLines="0" NumberOfStrips="0" NumberOfPolys="0">
<PointData>
<DataArray type="Float64" Name="Pressure" format="ascii">
 19566.241632 17764.508022 19042.678315 17427.944729 19034.310741 17467.069009 20193.554214 18545.442328 19758.506088 18544.663564 19367.480942 18867.536522 18931.398387 18595.655602 19833.787849 19767.980758 19879.497780 19902.612730 20778.950516 20003.994243 20097.205667 19469.932619 20715.409265 20529.668412 21420.339248 20689.685847 22542.226082 22381.927513 22167.542107 21626.337031 23854.231179 22253.068911 22155.768725 21864.896660 23896.093304 23339.151674 23082.621355 23260.352160 23926.335713 24758.834144 23644.139230 23977.867795 23973.196517 24734.232702 23390.034477 24456.662713 23582.672250 24453.962546 23982.185487 24677.424170 25282.441339 24553.627605 26368.894550 25440.475577 23683.756096 23133.789924 24945.965847 24843.795306 26941.887885 27079.328797 22304.420660 23760.678382 22982.292916 23845.598650 25933.872033 26761.374773 22329.378918 23451.103892 28022.102430 27972.464992 29660.013770 29211.407732 26602.732483 27370.692311 28345.648281 29418.464533 24191.279225 26025.809655 31180.496083 31197.008844 30887.854336 31456.320304 28586.764947 29358.035314 30417.894975 28983.013517 29606.761670 28983.724620 26866.277606 26931.931418 25913.198212 25347.747367 25425.325135 24749.224763 24364.639440 23422.014351 27979.314623 26739.658236 27023.597445 26727.395247 26246.164226 27325.219462 25716.449706 26120.554356 27447.739870 25833.322896 24910.126110 24658.758082 24590.260495 24060.209959 24049.820444 23615.161247 22932.833068 23241.886540 23689.572661 23246.771691 21321.897893 20083.427232 22637.127523 21627.205282 21976.524095 21942.801245 20371.989030 19941.610346 22861.506222 21286.438953 20281.401907 19603.259425 23147.905692 21869.792695 20244.640057 19489.628033 24172.289688 22199.789349 19968.216058 18258.107750 18344.847557 17899.775918 22470.173294 20755.452762 21593.104585 21333.296919 21015.724818 19290.206141 23577.441589 20252.142502 23346.085409 22100.296211 18784.469085 17833.587769 18489.563910 17521.361313 21255.998496 19428.948247 21147.321381 18786.795484 22435.735685 20037.859318 20528.646635 18416.965050 19604.434958 18295.453575 18789.189228 16918.592243 19301.012617 17016.490862 19886.817883 17762.303875 19111.251130 17184.216103 19842.890185 17769.481295 19043.901812 17545.700878 18624.805436 17724.429250 19684.675429 19129.606807 17795.109068 17073.459388 17115.267072 16296.265034 16944.973478 16366.307229 17495.603675 17866.313725 18497.150237 18711.652712 17365.797968 16723.389925 15916.316289 15251.529757 16888.858918 16071.735822 15082.497712 14663.824593 14676.607939 14973.333951 15203.656328 15059.452379 15731.263891 14298.108387 14451.377874 13065.815335 14722.204984 13730.543227 14597.852342 12937.975528 14851.725716 13116.253248 15287.015468 13993.231530 13541.054807 12751.241273 11461.690133 10342.684602 9065.709809 6982.692698 4943.898255 3148.415050 2249.882049 2331.094995 2395.827449 1291.441497 -1275.682836 -3517.122269 -4555.076896 -5257.535413 -5724.825253 -6006.672916 -6152.189976 -6197.176985 -6165.990679 -6075.640344 -5938.551988 -5764.353795 -5560.932220 -5334.999901 -5092.376503 -4838.122155 -4576.607118 -4311.561740 -4046.126365 -3782.907412 -3524.038954 -3271.246374 -3025.908064 -2789.111812 -2561.703626 -2344.328029 -2137.459896 -1941.428748 -1756.436874 -1582.572867 -1419.822173 -1268.076278 -1127.143284 -996.770962 -876.746832 -767.451123 -673.476255 15822.740982 14358.808870 13588.394470 12734.614428 11261.488770 10553.889385 9681.107697 7450.487182 5186.712892 3084.076905 1679.427422 1921.096965 2413.989847 1594.792364 -595.411882 -2969.938749 -4338.634436 -5149.766633 -5674.538603 -5975.371185 -6130.224229 -6180.854933 -6153.467855 -6065.852620 -5930.857608 -5758.353175 -5556.358623 -5331.654515 -5090.093673 -4836.753382 -4576.015440 -4311.621030 -4046.722390 -3783.938984 -3525.418462 -3272.899488 -3027.772721 -2791.136699 -2563.846418 -2346.553603 -2139.738703 -1943.735443 -1758.749259 -1584.871125 -1422.088263 -1270.292756 -1129.287450 -998.779481 -878.298059 -766.651853 -658.495971 10432.230897 9133.726082 9756.537575 7344.547579 6793.170858 6869.728097 5555.769234 5903.459595 3506.301643 2913.468279 3282.777061 -1696.161976 -3185.671903 -1454.501510 -895.428837 -475.917412 -177.240956 -19.770602 6.955021 -67.425128 -207.791117 -382.699435 -568.243394 -748.236140 -912.618599 -1055.492686 -1173.513947 -1264.861814 -1328.716434 -1365.065741 -1374.670127 -1359.061358 -1320.507935 -1261.922814 -1186.717016 -1098.616379 -1001.463017 -899.021802 -794.808253 -691.949304 -593.083461 -500.302367 -415.131996 -338.548818 -271.024261 -212.589787 -162.914486 -121.386361 -87.181486 -59.251699 -35.901872 11499.310766 10471.238695 9831.465429 8194.625214 7663.534737 7262.135661 6141.607197 5565.572791 4781.441446 4371.977653 3408.627204 1185.470881 -542.008329 -1045.477500 -827.227230 -479.268534 -199.960410 -44.836132 -13.923564 -81.977363 -216.181085 -386.132939 -568.155073 -745.859348 -908.843881 -1050.895233 -1168.448102 -1259.558056 -1323.351589 -1359.800994 -1369.663351 -1354.463750 -1316.453850 -1258.518988 -1184.034584 -1096.687042 -1000.279386 -898.541213 -794.959069 -692.638671 -594.205559 -501.746367 -416.789132 -340.318160 -272.817014 -214.332155 -164.549804 -122.880411 -88.554492 -60.787161 -39.407474 -606.976760 -576.455448 -583.160274 -554.264715 -522.429593 -506.427330 -448.815790 -446.920746 -388.474278 -388.728872 -335.732796 -336.299421 -289.269697 -289.840291 -248.410520 -248.936681 -212.609526 -213.085461 -181.363162 -181.790374 -154.198723 -154.580096 -130.674277 -131.013031 -110.379715 -110.679170 -92.937331 -93.200812 -78.001777 -78.232551 -65.259450 -65.460679 -54.427423 -54.602129 -45.252029 -45.403063 -37.507170 -37.637197 -30.992470 -31.103955 -25.531303 -25.626509 -20.968801 -21.049785 -17.169853 -17.238475 -14.017163 -14.075089 -11.409382 -11.458096 -9.259343 -9.300159 -7.492409 -7.526484 -6.044955 -6.073300 -4.862971 -4.886467 -3.900801 -3.920209 -3.120008 -3.135984 -2.488361 -2.501468 -1.978941 -1.989657 -1.569349 -1.578081 -1.241021 -1.248113 -0.978626 -0.984367 -0.769551 -0.774183 -0.603457 -0.607183 -0.471899 -0.474886 -0.368001 -0.370388 -0.286188 -0.288090 -0.221953 -0.223464 -0.171666 -0.172861 -0.132410 -0.133354 -0.101854 -0.102597 -0.078138 -0.078720 -0.059782 -0.060238 -0.045616 -0.045971 -0.034713 -0.034989 -0.026346 -0.026560 -0.019943 -0.020108 -0.015056 -0.015183 -0.011336 -0.011434 -0.008513 -0.008588 -0.006377 -0.006434 -0.004764 -0.004807 -0.003550 -0.003583 -0.002638 -0.002663 -0.001955 -0.001974 -0.001445 -0.001459 -0.001063 -0.001074 -0.000779 -0.000786 -0.000564 -0.000570 -0.000401 -0.000404 -0.000271 -0.000273 -0.000160 -0.000161 -0.000054 -0.000053 0.000065 0.000067 0.000218 0.000223 0.000438 0.000447 0.000770 0.000785 0.001288 0.001312 0.002102 0.002141 0.003383 0.003443 0.005390 0.005484 0.008516 0.008660 0.013347 0.013565 0.020744 0.021070 0.031956 0.032438 0.048763 0.049465 0.073660 0.074665 0.110068 0.111486 0.162585 0.164550 0.237242 0.239913 0.341730 0.345287 0.485555 0.490183 0.680017 0.685885 0.937907 0.945130 1.272752 1.281330 1.697408 1.707152 2.221776 2.232199 2.849363 2.859550 3.572455 3.580906 4.365651 4.370109 5.177643 5.174909 5.921210 5.906980 6.461634 6.430386 6.603944 6.549008 6.079482 5.993989 4.531260 4.413976 1.488664 1.380460 -3.726092 -3.528024 -12.686475 -10.084750 -21.721583 -16.431361 -25.839260 -20.025366 15313.702770 18161.166228 15064.258378 17371.086704 16741.751728 11462.792600 15180.577938 16427.260800 13620.263729 13548.389121 14151.229758 16347.031332 17063.521441 13883.589748 17169.423110 11272.892830 9080.443526 13722.122220 14363.118631 11671.230609 12822.422526 11633.886248 19590.916217 17232.118813 18445.927511 18361.540827 16498.214319 19034.973543 10552.079356 16154.544596 13117.291574 4816.565961 18198.876003 18657.580597 19634.819679 19121.975397 10602.727495 16728.198502 18275.204095 13970.972405 7811.184135 14348.191467 10299.927997 18298.109543 14927.448543 7343.729376 19737.933941 19765.079530 19917.895718 17269.529113 17518.764543 16559.838236 7379.972926 13204.988411 14223.476323 16527.918473 21195.113037 20861.531810 20372.438852 20274.919542 19081.811525 20170.481648 19198.084024 18000.524029 14776.395387 21667.416628 21863.254273 17179.045043 21918.620299 21137.411334 21839.113333 20867.491145 19322.843739 18856.942212 18209.263917 17573.119726 9564.176892 22616.587902 22446.290269 22353.022382 20332.945919 21692.916097 18383.588272 16429.700897 20666.428436 20747.277322 13318.875762 14038.984210 22918.161135 24330.536065 20041.637276 22273.163137 20916.774290 19778.164109 16604.703485 20349.063918 20060.863904 12536.434561 17053.516036 24246.224603 23182.497328 17348.133103 20191.766609 14044.065235 23139.828817 15250.958592 18660.156956 21000.641278 7137.590013 14328.859298 24217.537713 21307.863940 22892.452965 7391.016678 24019.228150 14401.826387 20902.878661 10409.454996 11681.130683 10104.855442 7671.533173 23500.174898 23863.612275 12685.996207 22904.121672 9180.752860 17350.710667 12608.780317 15155.324486 17440.623509 17970.835590 15313.899271 24968.408911 21642.872458 22416.166789 19760.235168 15923.657782 19979.985426 18292.446472 11819.623978 22991.968196 23410.478304 15784.215565 22992.364631 21823.904936 22953.679004 22412.269936 21921.360396 20291.499551 20009.665211 18120.847085 21113.110777 12159.126944 13208.069732 23911.437254 21965.068992 25388.693186 22669.028177 17159.939988 23835.734273 15021.620729 15726.497543 8659.349616 11527.982671 9782.545521 24938.027064 24417.785807 25847.334397 19636.314800 17846.512048 15137.013511 15634.473920 10784.015659 6389.441391 6924.838432 3919.836775 26778.199262 25517.500358 22305.278931 24523.100815 22696.810824 19901.383097 16182.246103 18693.339284 9429.397207 4508.045282 2175.898212 25476.218382 21271.903004 22971.146677 18458.637021 16122.275033 8599.617158 7467.038660 7634.504115 6082.108226 5609.954511 6561.165604 25644.413033 22303.939605 22275.651168 22490.443349 18844.034083 11308.574847 14776.379613 8428.789119 9588.528566 6710.160772 3880.258704 24903.259924 26357.015260 25600.125919 21312.647758 11944.548042 10528.648081 10488.940482 7671.345933 6462.448643 3115.359737 1477.928956 26622.240362 23939.954765 26718.990502 21383.022322 14515.976549 7323.114496 6453.600617 5376.404263 2417.649247 2944.559895 4085.563313 26017.055934 25799.710094 20925.460984 18015.469222 18983.955222 7784.915569 7781.719765 3250.877027 4266.011369 5065.548161 4632.965777 27042.444979 26519.686365 24664.572482 16198.212491 17145.674798 15169.524539 4013.609310 7260.828629 5058.466462 5905.606932 1920.300155 26475.103341 24679.967033 19909.297554 18292.830291 8348.647356 13426.396128 14689.299736 14040.851310 12731.136734 5346.943358 835.270867 24971.264445 24042.286847 20996.634170 20104.383298 16605.159299 17725.009171 10232.536052 4543.257697 14329.382534 4996.835963 3099.647413 28217.186295 25153.832328 22928.487589 25962.051806 24144.214344 13965.189521 10258.979008 9608.729481 10573.205778 9255.659349 4393.375964 26920.499225 24167.716263 23095.055787 18036.460005 23810.300074 7193.165964 14099.294830 5137.746425 5369.084810 4572.734935 2614.744597 25582.834165 19570.379257 16879.337336 20320.094907 14347.475936 19609.561418 12530.234329 15864.104027 4060.742120 3908.059004 8462.562808 27052.609230 27745.963381 23464.903409 23021.062255 20070.583315 11662.091517 5991.267484 10805.369969 7052.613948 7542.868749 2442.107470 26728.787638 26362.331300 19797.634463 15935.559771 18117.552449 9128.390828 12550.784369 7111.320959 11089.624628 8865.152551 3882.767015 26303.447072 23273.432555 27995.578134 19684.451651 18965.560116 6956.293862 10475.612071 12162.529157 8787.128172 6028.347338 4847.468105 28647.936362 28016.839644 20857.927915 20795.010246 22429.647815 18402.293275 15150.995787 11713.010625 11145.442608 8773.204354 2321.503214 28563.862414 12819.785466 24474.551748 18921.154621 25282.369196 16057.240539 9409.584718 13117.294836 4256.849656 6796.005833 5350.596557 30515.190326 28124.034358 27088.815782 21836.805679 17672.365935 13249.737614 15164.719307 11325.034054 6674.624983 5214.729637 4272.121245 27476.068411 26257.628576 22072.564001 21348.938485 21583.410883 16821.310512 16300.357229 7573.153404 5910.316058 6727.108287 1536.137863 28294.188309 25913.733811 25742.377843 24790.266383 21415.714897 17892.072568 13970.339973 16021.351449 4823.536861 4857.179080 4888.323139 25151.772444 27088.969437 18985.571266 21257.356811 25202.767129 14580.921438 18352.056262 15490.114643 11029.130769 6347.554911 5518.541933 23064.939217 25892.179997 26238.713120 22858.764896 20128.396182 13396.026245 15256.686463 13899.619505 17972.243068 4330.185722 5848.355818 27489.580504 25898.108612 24622.095165 18138.339129 20527.084423 12051.555545 9565.207408 7123.518467 9660.341564 4545.122015 1655.909174 27054.291252 23352.141147 25166.818181 18848.417149 7872.917200 11250.244780 8198.876839 6655.542572 4662.076745 9639.051772 5199.091692 25217.016316 27092.370787 23831.807997 23539.577679 19228.930048 13547.676593 9552.761741 7616.845436 11218.526912 4823.767674 4644.515283 23733.084971 24982.535280 21903.057919 16395.127788 15599.579556 13099.590622 18350.329032 8159.109607 6113.975803 4582.248805 3959.866647 23943.887699 24344.714539 22453.749142 17370.514583 18701.577267 11559.913129 12757.514306 10975.917166 9283.412290 5953.700232 6781.531781 25293.625895 24831.839492 22579.748118 24096.311277 15494.263745 14048.328006 9893.290730 9336.051636 7464.127500 6640.717183 5175.096714 27105.855397 25338.756313 21291.331716 12926.362587 16498.603141 15025.522308 9722.934926 13880.548707 6868.054275 7457.600664 3308.006129 26107.437004 24288.465021 25001.323977 6773.699903 8975.987512 9361.637747 10868.821359 8279.473955 5232.098061 10038.042329 4732.208061 25325.637471 20077.926460 18240.888426 21342.758410 11645.947561 15791.081237 14135.356166 4777.344978 5646.047221 9805.653167 5880.080559 27155.007074 27026.875232 20178.310348 20446.280010 14658.845868 14482.008528 7198.232023 16909.606467 8555.821320 3569.506395 3199.547499 26249.830124 26903.317813 22933.745660 18423.918456 12734.298379 16983.252518 17260.466307 7117.580728 11161.057868 4235.469465 4992.957114 23539.775601 21367.282663 23017.503148 18448.981949 17891.456556 14810.364508 16347.550274 9895.084337 12339.374941 5804.671346 3477.456420 24098.068978 20556.620368 22630.900892 19223.951620 14610.969134 16220.076465 12177.350872 13694.200911 11079.450860 7532.246495 1864.900350 25101.182830 23101.854058 20136.294371 17807.116622 19305.305554 13615.383498 15069.222481 11968.826690 7699.192603 5415.045128 4310.690606 24125.240197 26249.626234 21174.333210 20395.942053 18862.297811 14981.934462 10842.278783 9451.123812 11875.477834 6829.000323 2823.016532 23324.651660 23250.555823 21170.054455 21613.283676 19286.034720 16342.048747 9959.910929 10636.517536 6399.867203 6796.329882 999.588482 23782.353897 23336.707897 21969.236950 19887.204897 14253.776635 9043.553724 8833.651512 9232.010724 3397.790733 3876.863022 7272.857693 22795.766068 23570.667404 21838.159409 19896.503301 13283.232596 12609.921876 8337.770978 6893.029511 5304.867952 3734.214861 4109.958767 23452.033122 22635.228339 21181.602507 15549.772830 12501.288796 9952.313002 12297.829291 7961.205860 5683.131134 4800.146023 14838.911554 22229.515739 23340.398465 18564.036419 11097.518683 17561.851375 13254.401339 11786.601194 11392.708158 9104.983959 4082.346975 2922.830157 21197.234823 20622.515189 19633.543800 18190.390367 15108.413323 12690.470589 13369.827198 15686.397412 7158.211308 2641.818039 885.492836 22698.769968 20518.958409 23159.968672 18857.029787 16669.155751 16310.067936 11492.538804 11809.305319 3854.534836 5207.670486 5951.742382 22839.691492 18783.691159 18709.380879 18956.700662 15187.394313 14317.655971 7495.319608 7163.101707 5228.894117 5627.624433 1379.509897 22058.003007 20814.606738 19143.326744 15963.128744 17823.616296 13414.941898 7039.045816 6510.469712 5621.002656 3383.092974 2194.207992 22143.224104 22810.315885 21602.370491 17589.747483 14670.489933 12767.895482 15503.832698 4703.910404 3940.865089 2878.626934 2647.421692 20716.947347 20019.099801 19123.099625 16898.758997 17052.808732 13985.564439 9323.907010 8834.518345 2682.619811 3594.478527 2864.101186 20967.658784 20053.202020 19737.302706 19281.770520 12455.313037 16791.284044 12750.095538 8075.691128 7555.572274 4936.611385 3765.867941 21271.387734 20166.518640 18596.493663 17347.873389 12653.776697 12444.131895 9576.412683 8377.011510 7002.979089 4839.862283 2508.997680 20260.425006 20485.095152 19839.202897 18088.684731 10518.353040 13619.955612 9266.360702 6487.194200 3346.017176 4129.290913 3058.296368 20830.112322 19271.801012 17221.391427 16960.542658 10692.989427 8804.544715 6900.852917 8007.121778 4673.112429 4463.443503 5498.372745 19878.499801 19318.803264 15256.790869 14586.947099 13301.148968 7745.304633 10560.081054 6035.817505 9557.205149 5443.559270 1889.510399 18578.554923 17226.887137 18661.840790 16897.813039 14096.889695 9404.049644 9935.654096 4949.804019 4825.579257 6028.020292 7429.958409 17185.222988 19459.482091 17207.576767 17525.614016 12413.483494 14765.249873 6429.499847 10847.642007 7663.104793 8126.927389 3026.009737 21006.749432 15028.398272 17754.337927 19378.301296 14185.684424 12853.106509 10031.898632 7702.106569 7614.207288 8192.415979 5736.572427 18491.786126 19439.914955 16855.787849 15270.529194 10291.364134 12825.187291 13186.501521 6132.860807 9138.123150 3498.829408 4354.506976 18590.533386 16967.843069 16075.765690 16293.747682 15070.608177 14405.045862 10571.309752 8060.034923 5103.590097 1920.454399 1390.369228 18301.867461 18484.372257 17393.904359 15951.311656 13052.352176 13342.362740 11515.826506 10133.967053 5588.778786 6819.196470 16464.716004 17211.441643 19331.816474 14522.704095 17664.133174 13302.303869 8792.669580 11938.130936 5030.727961 7236.693677 11473.709652 7870.946434 18624.241687 15762.285988 17333.919172 17856.183378 13679.170094 13065.176319 12006.466413 6905.997319 7347.380809 5974.526003 5412.997346 19301.108956 14714.253037 17168.941520 15715.049623 14319.230962 12153.959989 8545.923978 8880.622080 7188.152555 8689.693993 5254.608480 18469.036438 16440.884523 18738.021833 16008.086679 13369.037063 13818.180874 13539.389564 10199.507683 9089.409699 5973.381437 2918.023901 14561.199603 16226.596950 16043.421307 16041.364659 12464.181623 10851.281983 11487.803961 6417.447384 9643.716353 5844.045610 7668.598707 16763.139398 16110.290581 16141.950059 13994.338599 13286.339734 12448.092984 9685.120978 11100.851989 9245.152562 2749.492059 1854.533942 15162.933868 17167.520582 15163.782541 14760.680223 15767.883967 12814.224001 11489.558982 9857.082024 8480.774446 6935.221204 6683.096847 16152.945464 16750.712392 15340.381209 16629.383629 15074.192265 13126.217342 10761.851167 7079.702432 8937.222527 7594.362254 3022.058287 15001.484901 14278.225724 15293.906857 14074.733445 14450.064225 13341.078312 7971.234588 9506.635981 7795.551168 6435.674490 4795.412529 14916.900781 14159.376473 13846.728159 15362.845421 14579.745720 10706.075615 11572.754425 8139.894227 8311.420486 6343.082749 4334.133647 17345.207545 14582.802987 12112.820155 13866.495626 12559.316200 12462.039398 9645.224704 8973.228941 4797.392684 5645.351578 6475.563594 14828.261843 14723.677234 14302.313901 13832.722323 12821.018853 11188.948420 11295.877583 8369.670198 5483.376510 6967.318234 9247.226087 17612.016230 15511.826674 14511.514565 14474.424475 8342.315162 12706.909911 7645.800294 7193.771084 5964.978291 6587.640154 1576.964450 16366.263084 14289.641551 13480.766692 12762.569626 12709.932578 10995.921898 10005.585480 10235.633033 6642.312910 5608.524809 4018.093481 15116.704289 18573.451331 11977.700811 13613.482467 8176.557304 11604.850465 9616.413539 8346.619691 5646.522522 363.841771 5621.249987 17927.892896 15219.875790 14070.769535 13384.401863 11464.486258 10291.129877 7915.359363 9952.128194 8405.451004 6081.390636 11820.695854 15457.311397 15500.031229 10888.200224 14859.235460 10318.519659 11619.720472 6869.133576 9344.503476 5380.864458 4753.636267 6238.383355 14937.623621 15681.550374 16372.710067 15212.095190 15618.747421 10575.460055 10344.744944 10290.714939 9537.027180 6001.858856 7293.231122 15488.535125 15652.622518 13858.917569 13292.795074 12689.547482 11323.954839 8285.554112 11881.826502 7166.165801 8235.623598 2363.236306 15348.387217 13585.644523 12719.682663 8699.432480 10230.190568 10293.660295 8651.821610 8014.005095 6259.440759 4880.610811 5715.072292 13326.484050 13667.099432 12762.091119 13317.447131 9850.476777 8022.250466 6868.040427 7964.228996 7214.544686 7567.054852 4545.541529 12674.648223 14771.517813 11818.675467 7740.292089 9105.833735 7361.917255 9973.621604 6636.148143 7114.614113 5692.227013 -180.160459 13090.139727 13394.004821 13849.529464 10210.568729 9676.132608 8008.782616 7440.967138 7436.448794 6628.574735 2866.033258 7490.643500 10359.729609 9468.508626 11199.218469 12744.738700 11477.344249 6736.823878 10413.783354 7713.064741 6755.269589 5814.178695 6306.336458 12676.612501 13215.331452 15051.936969 10091.444960 8816.640563 12783.588225 8803.049444 6720.125821 6536.803291 6694.282509 6737.306906 12496.150446 11901.095308 11307.946444 8695.715327 9582.439184 7966.825014 9291.524420 12641.122303 7182.316577 7600.712550 5833.569093 11853.259175 15948.915005 16268.195249 14890.451446 10069.042455 15152.677161 11621.409375 15376.064829 15358.669407 11044.702401 10123.348619 8390.126673 3949.913772 -2318.169290 16369.060843 10310.510756 17026.732440 15154.933268 7165.025344 16154.455411 9939.721813 7955.846226 12777.318026 6376.891362 8233.287117 7538.288249 3741.983785 8432.142939 7342.659911 10142.531520 11462.328322 5297.541846 6821.536217 6668.643761 9402.554216 8707.368558 12317.332258 5621.761491 3481.947614 5572.222493 4660.658594 2596.699665 13085.098176 9532.813022 10955.105807 12248.967149 13715.817488 11320.997348 11876.395182 11554.831170 5549.424389 10625.360184 10160.807313 6420.860360 6327.563564 4342.257649 14700.835170 17800.638365 10412.779448 9531.190186 14954.907684 12679.232735 11952.728518 10249.325274 9216.428623 5629.425226 7740.314080 7067.918562 3150.796820 4426.179821 11784.622105 18626.517131 11956.884503 18604.063750 13541.545052 16004.129539 16226.158661 8884.545643 8972.029905 9096.874781 7967.790618 7624.904843 8791.859877 1658.461597 22386.049785 5956.363813 12294.005902 13316.773996 5460.679032 14992.742782 13676.260650 15905.897361 9068.658945 7111.104372 6268.460499 6446.309083 5246.325953 3545.650129 10651.208775 10272.485628 11779.909894 17575.408060 10708.229816 15498.423179 6267.184048 5617.121949 6595.677963 7942.740770 10298.964982 7773.943764 4907.908981 4664.614347 15268.954104 15370.669427 10163.199070 5774.216675 10453.567190 6369.684256 7159.582440 6476.602779 6240.843867 9875.743763 7576.152714 7601.759487 5438.532330 3014.665728 6285.240583 10851.075484 11957.982499 8201.930476 11530.325531 4093.792301 10760.484643 8701.084910 14473.064059 6116.631240 6162.266249 4610.135431 4000.337835 2869.834014 7535.311705 10508.078659 21020.734196 16304.972421 6601.964862 7203.995057 6147.941017 13774.038299 9817.422992 11275.700863 13445.465160 8900.915649 5989.425435 4045.684708 12431.528851 6014.666148 11882.853221 20448.327862 7741.673036 13093.163461 3235.948550 13585.508769 8071.592181 9816.367240 8667.165284 17016.712806 4154.327210 3866.086394 8139.913287 3333.220909 1726.526366 13213.109027 7194.567187 4663.953161 9532.191485 17853.101103 19169.866033 8088.634273 6694.915255 5762.430711 4305.382655 4580.138672 3797.726857 7660.796085 4776.534325 4469.612529 8068.273290 4833.904953 6996.695453 11054.743427 4453.250383 11708.042466 8354.693949 2426.036505 4130.237135 4885.165546 2771.862303 3366.579027 2294.254029 4828.179951 2681.780379 414.798465 7557.878115 2891.968891 4934.268644 3076.033495 5708.818523 3803.309654 4112.047420 5558.658765
</DataArray>
<DataArray type="Float64" Name="Velocity" NumberOfComponents="3" format="ascii">