<VTKFile type="PolyData">
<PolyData>
<Piece NumberOfPoints="1945" NumberOfVerts="1945" NumberOfLines="0" NumberOfStrips="0" NumberOfPolys="0">
<PointData>
<DataArray type="Float64" Name="Pressure" format="ascii">
 29994.383963 31867.326686 28848.507505 26798.831970 24655.779808 18262.756122 28603.589899 22696.259891 32022.997081 28890.767292 26058.077118 25260.674090 24706.274886 28036.059667 25354.512263 27615.439733 28345.435513 27750.639078 26706.442192 26761.880491 25217.555840 26354.378530 26316.266650 26671.977336 27325.287482 27520.799430 27639.983322 28575.136273 28163.170392 27490.551739 28588.110123 26376.380556 27383.607043 26174.453340 27042.597125 27870.296173 28236.672326 28781.260212 28886.568610 28258.730068 26419.744125 27163.192608 26387.809157 26683.295047 26915.633393 26006.099332 26350.396066 25167.447309 26363.659220 25960.870415 25623.410709 25466.261354 26363.283838 26066.924818 27761.444009 26140.454850 26597.385742 23074.872957 27579.427834 25925.526073 20788.079724 23129.053611 22525.408064 24054.749150 21946.595475 21980.516324 25309.965033 24639.973689 23689.842784 21261.597378 24536.414789 24789.267107 22021.371423 25024.476154 19801.845969 20401.978648 23158.058834 21155.173896 23659.921975 21555.567338 23339.906786 21719.437185 21548.334801 20604.505191 22073.594818 21230.590431 23411.136938 22082.218698 21494.071147 22124.793861 21618.163965 22510.599195 20160.808108 21402.380473 19452.727824 20832.137560 19131.805954 20458.992761 18868.421179 20310.349119 19490.377875 21423.720386 18786.470860 20234.895383 18824.853377 20009.077990 18021.795082 19395.147533 19692.174386 20959.921947 18360.829827 19835.898914 19006.929802 20194.780581 18007.051662 18699.774474 18678.467470 18160.083580 17998.034299 18412.693616 16852.039661 19405.004335 18139.993171 20216.983578 17295.483498 18623.610934 17391.163879 18813.878737 16712.413957 18789.759354 18061.705299 19587.321126 18114.583771 19039.620139 18692.885638 20031.087071 17251.482273 18856.447147 15744.488849 16996.307846 17703.562540 17949.244927 16782.784226 16664.722299 15840.166922 16662.452962 16561.426506 17364.835125 16792.625283 16182.276583 15664.654503 14557.047876 16944.037397 17968.447873 15078.910120 15421.704137 16475.697757 16489.446708 16300.131980 15950.705249 16152.525523 15632.872471 14132.977304 14347.233925 14783.958455 14625.122888 14668.547251 15964.601120 12791.255597 14254.391728 14028.816286 15575.588943 13397.359379 15002.198406 13711.106211 15456.610365 14098.609311 15557.249258 15179.833527 16059.782360 14232.262768 15041.795172 15657.385105 14713.576655 15249.014292 14539.355650 14560.888750 14398.196903 16547.102056 15940.299242 16893.862960 17043.400178 16334.236878 15555.483183 14472.593936 14126.624318 14950.228280 14283.751929 14190.927559 13901.549070 14995.333675 13850.738156 16383.236729 14536.395239 14696.290870 14202.891189 13631.893310 14745.419541 14461.724534 15095.892808 29684.872042 27477.390137 25416.291309 24513.874864 24193.230648 22920.480359 22434.177611 21074.125189 20667.109372 18450.143243 18062.486536 16279.756552 14790.839494 11740.074807 11172.952232 10293.440187 8871.877927 8232.574105 8182.379258 6452.621951 4542.522529 2408.025251 166.466861 -1573.766898 -2711.609993 -3437.018918 -3874.741606 -4112.196272 -4210.362851 -4211.657923 -4145.568164 -4032.664673 -3887.419737 -3720.151490 -3538.346029 -3347.544476 -3151.932281 -2954.728763 -2758.444955 -2565.055971 -2376.118451 -2192.852938 -2016.203787 -1846.884566 -1685.413880 -1532.145033 -1387.293334 -1250.974042 -1123.324631 -1005.137242 -901.971157 27184.187101 26660.170054 26092.633279 24800.264050 24153.872541 21937.496813 22127.269261 18770.047615 20710.491460 16023.222539 18140.846164 15038.991451 15476.667504 8837.446129 11911.217065 11868.671690 8954.110090 6331.657732 9131.315259 6367.819534 5033.293652 3781.448029 319.822061 -1471.063386 -2630.078879 -3377.063222 -3831.893801 -4081.957082 -4189.167877 -4196.870779 -4135.302657 -4025.597992 -3882.635169 -3717.016815 -3536.424136 -3346.530029 -3151.608145 -2954.936714 -2759.066376 -2565.999288 -2377.311026 -2194.235830 -2017.728336 -1848.510093 -1687.105960 -1533.873310 -1389.024100 -1252.629324 -1124.534115 -1003.750079 -884.535208 16052.998306 13135.698982 11576.725755 9988.582039 8748.463592 8780.839071 6190.599730 6386.977515 4929.641096 3503.560966 3368.785237 2397.750381 2063.898374 2502.667716 2128.958751 1648.282925 1166.626080 731.452300 362.289979 61.352117 -178.213720 -366.719748 -514.665603 -631.142424 -723.281713 -796.278413 -853.682853 -897.782383 -929.977343 -951.106835 -961.708426 -962.210888 -953.066296 -934.830746 -908.203709 -874.035704 -833.313083 -787.127623 -736.637402 -683.024241 -627.451847 -571.027727 -514.770992 -459.587343 -406.251774 -355.398914 -307.519975 -262.962292 -221.910876 -184.231650 -148.454921 14724.391474 12500.642573 11197.574571 10386.887672 9473.183624 8879.084587 7450.437635 6789.903139 5782.678739 4786.360777 3990.337317 3363.562262 2905.819519 2534.641291 2118.502683 1645.553832 1172.786496 742.549811 374.854178 73.249749 -167.982508 -358.412026 -508.132192 -626.059530 -719.289190 -793.051378 -850.961372 -895.377355 -927.764305 -949.014649 -959.706664 -960.297861 -951.258618 -933.154741 -906.688706 -872.709086 -832.196913 -786.236610 -735.977986 -682.594552 -627.242333 -571.022238 -514.948166 -459.922123 -406.716992 -355.967029 -308.166146 -263.676359 -222.764978 -185.785721 -154.286759 -828.040641 -793.952763 -800.183400 -767.613020 -729.394453 -711.055822 -642.184009 -639.894881 -568.841191 -569.028543 -503.196664 -503.763535 -443.976246 -444.569471 -390.622367 -391.184429 -342.701028 -343.222966 -299.802982 -300.284169 -261.531001 -261.972447 -227.500469 -227.903672 -197.341685 -197.708395 -170.701968 -171.034104 -147.247291 -147.546888 -126.663438 -126.932604 -108.656728 -108.897605 -92.954344 -93.169072 -79.304324 -79.495016 -67.475265 -67.643978 -57.255783 -57.404502 -48.453774 -48.584394 -40.895528 -41.009842 -34.424717 -34.524410 -28.901319 -28.987960 -24.200478 -24.275518 -20.211355 -20.276129 -16.835973 -16.891700 -13.988087 -14.035874 -11.592088 -11.632932 -9.581952 -9.616751 -7.900253 -7.929808 -6.497229 -6.522253 -5.329924 -5.351046 -4.361389 -4.379163 -3.559958 -3.574868 -2.898585 -2.911057 -2.354254 -2.364655 -1.907444 -1.916093 -1.541650 -1.548821 -1.242969 -1.248897 -0.999723 -1.004610 -0.802136 -0.806154 -0.642052 -0.645346 -0.512685 -0.515377 -0.408406 -0.410601 -0.324563 -0.326348 -0.257321 -0.258768 -0.203528 -0.204698 -0.160600 -0.161544 -0.126428 -0.127186 -0.099290 -0.099899 -0.077790 -0.078277 -0.060795 -0.061184 -0.047389 -0.047697 -0.036830 -0.037074 -0.028522 -0.028714 -0.021982 -0.022132 -0.016816 -0.016932 -0.012704 -0.012791 -0.009376 -0.009439 -0.006598 -0.006639 -0.004159 -0.004180 -0.001854 -0.001854 0.000530 0.000552 0.003233 0.003281 0.006536 0.006617 0.010786 0.010907 0.016416 0.016587 0.023969 0.024202 0.034124 0.034435 0.047721 0.048127 0.065777 0.066297 0.089498 0.090151 0.120270 0.121072 0.159619 0.160580 0.209133 0.210253 0.270322 0.271580 0.344393 0.345740 0.431914 0.433261 0.532346 0.533543 0.643384 0.644205 0.760105 0.760223 0.873857 0.872816 0.970879 0.968066 1.030619 1.025233 1.023743 1.014764 0.909844 0.896003 0.634891 0.614649 0.128471 0.100005 -0.699054 -0.737853 -1.959345 -2.010859 -3.788652 -3.855495 -6.349901 -6.434857 -9.834059 -9.939989 -14.460463 -14.590174 -20.475830 -20.631875 -28.151738 -28.335928 -37.780831 -37.992173 -49.674833 -49.898039 -64.184846 -64.320413 -81.858383 -81.314251 -104.634849 -99.541021 -124.174249 -114.825559 -132.430412 -122.602060 25404.958533 20868.558568 22012.713932 24317.488801 22185.001731 21321.678156 24537.803117 25795.959265 24355.023916 22401.988278 23267.316838 24074.308412 27451.279622 20330.577431 26283.098284 16652.627407 11723.622422 20194.357890 16652.081103 18837.663669 22208.248367 18280.803723 25561.331615 26332.780795 22306.607889 25058.527106 23499.982826 27308.537708 15655.049140 22742.163747 17222.662491 8084.371912 26225.889883 29097.713988 27352.770133 27376.224432 14230.516934 22090.329553 23398.617310 22388.193537 12474.788624 20779.004627 14620.904946 29063.523802 17190.338449 10997.570495 24410.242209 29219.657448 25110.671002 19951.048962 24262.383737 21956.496235 12727.679482 21179.228970 19107.771571 24130.944079 24632.763077 28628.107820 27279.301044 29257.089168 25190.436969 27124.377091 27405.033861 23856.984719 20878.412791 25609.036441 24563.431174 25142.093711 26640.936715 25793.414953 26692.058661 24272.669590 30020.362237 23261.585116 20665.682901 19704.958654 11055.874763 27778.138777 27395.312328 25356.381952 21382.285794 27355.620891 22287.978271 18754.972929 26515.023772 27517.870514 15252.828955 13727.692362 28512.808533 26107.137373 20317.026388 29178.369788 23961.232003 21876.786977 22677.248320 25327.986197 24135.826367 13166.185771 16953.319946 27191.237702 23236.510839 20553.010129 23063.191931 14887.853385 24775.693708 15267.732382 22809.260277 25139.797843 7735.671616 17245.660964 28510.223235 21879.288152 24211.083075 8884.834908 25936.468269 15126.386514 21740.663032 10120.772848 13416.480165 7843.656492 6199.215092 27547.843808 26150.816264 12794.573795 28026.848647 10495.548412 20121.764497 13755.548475 14197.689000 17968.706693 19085.440958 16356.485652 27360.331797 24703.462386 22457.250307 21581.681514 13613.336611 18647.565682 16508.537697 10550.321158 23179.518137 23173.639696 14603.201224 25679.583724 25629.250682 27219.125035 27046.395930 20533.647083 21827.785448 19400.323278 15684.893900 19803.729438 10659.986873 15360.777891 25792.060506 24159.230005 25536.588377 25896.485233 19225.817001 27794.117509 15034.150245 14919.392999 6917.603412 9930.040505 9949.417292 25437.416273 23321.566085 24190.778718 20007.179652 15007.488005 16414.852297 16858.249368 11888.164628 5535.261807 7289.766581 2432.664051 23436.039663 25382.870466 24487.610807 24429.176588 23078.244821 19612.645303 15285.575172 17676.596647 11704.882062 1848.024937 4624.827756 25601.976402 20048.448258 22952.457428 19170.184375 10128.549450 5950.148699 7420.264911 9404.275089 5478.412287 7113.217558 4732.181886 21954.087912 23378.903924 21784.860278 23878.874925 19826.040560 7512.529027 18492.512781 6629.888284 9862.002867 4752.576900 2763.313578 24467.640223 22561.940256 22740.702019 22608.869930 10716.469443 9971.023081 10645.728480 8222.635891 4589.843723 2997.266382 4282.352412 22894.147222 22517.644788 22935.535787 21314.312661 15080.573397 10489.062472 6321.244296 4213.579979 933.496165 3789.297353 4868.660569 20716.276504 22303.156098 18339.770988 18081.803357 17104.047429 6566.733152 7486.811336 5291.244590 5270.162821 4522.338632 2886.148728 25109.694291 20937.150765 23341.994157 13541.930042 17580.110101 14736.329797 5297.173395 7839.332638 3836.116907 5896.257035 3325.172076 23882.656135 24275.659496 20564.908548 17711.581450 11801.181582 12198.794231 13900.920668 15350.374050 10239.904786 6095.441737 3823.227995 18186.158297 20016.046392 21419.973373 18365.403997 12997.191682 16237.737522 8828.569644 5835.075785 13342.722121 3922.491761 4996.221448 23773.394027 21000.548587 21016.977296 21945.670529 19389.292858 12929.469435 10371.743065 6757.681211 11099.759177 8665.273622 3108.997936 22232.878440 23467.056725 18514.987333 16771.532992 22304.988235 5796.820247 13633.228624 6784.066255 5875.223346 2248.520482 2399.429850 25192.571239 18846.825829 16208.921825 17713.804024 10866.403098 16648.368024 10775.108576 15536.611504 5259.542720 3077.972297 8254.021383 20722.007002 23726.270105 20248.321999 20399.597721 17785.274377 11704.194336 6960.354597 9817.610268 6614.948435 7847.862139 2658.928147 25951.545332 22577.129006 17559.430295 14501.832849 17491.391630 9804.299242 9027.111327 4953.130332 8735.680232 6069.295358 4400.209766 26204.976426 19609.742153 21447.024747 19985.126447 18449.115216 10978.209441 13469.240217 10091.273529 6744.841215 9222.392942 4113.930637 22586.175661 22148.232720 18233.777991 18563.840754 18966.104638 15639.732253 11130.145485 11147.475417 8823.653697 8718.909107 2343.031534 19118.075142 12529.083287 22555.149110 17473.261358 19178.944663 15397.373048 7253.032125 9020.873932 3817.069240 6164.252484 4619.095879 24492.420460 21905.825121 21362.233961 14712.798397 16563.443290 12463.787406 8875.473463 9373.097994 7127.114513 5457.244013 3622.560306 18918.823849 20972.570865 19492.882918 17496.056266 19103.469316 11905.105074 10359.515084 5497.097999 5300.780732 6488.730433 3603.098746 20781.480456 22855.672593 19903.345007 19985.402449 14417.957176 16019.445367 10577.686079 13499.342568 6824.514295 4102.451868 4408.500525 20674.828521 19759.818305 14847.004108 19753.218765 23099.940372 16715.096015 13115.531539 10535.772406 8723.751201 4863.721830 3178.183035 19482.289959 22048.051421 20855.859085 20480.319380 15183.258472 10004.715440 12302.182279 11611.207668 15808.053819 2854.041748 6102.428657 20843.148539 19795.040288 20773.485096 12628.022451 15482.735389 9389.302627 8302.843127 6126.909531 5739.433068 6551.516306 3603.435695 22706.405075 21137.035985 18387.322090 14721.323217 7077.379692 10881.174704 7153.484961 7861.678691 5893.527973 9928.388591 4210.031082 21203.668841 18902.581417 20546.238009 20668.368261 18507.940524 10719.739506 4941.850164 7279.420588 9634.939691 3011.356435 4354.904856 18480.155853 20008.375802 16804.872108 14992.283359 13947.327434 13112.736254 15475.842736 7305.978227 4907.726301 2967.134517 4345.623098 20227.999714 19517.619766 20121.318663 12584.919817 16028.575584 12104.403525 12525.233268 8897.969096 8560.305009 5251.367317 5561.242929 20234.647258 19205.586828 18961.609891 18858.363131 12409.526450 12735.910741 8863.807505 10546.361133 6576.894543 5353.497680 5263.049306 22468.868811 19064.587535 17897.077524 10642.914310 13807.990163 12664.457321 8061.203395 16345.773485 6104.139055 10177.595452 3160.670244 18314.237606 18661.466944 20613.770224 5955.734792 7287.843617 7713.000383 8301.381497 8616.113936 5391.862331 9213.424277 2484.210589 18943.063040 15807.547971 12324.844736 18367.552788 10274.795720 16132.711967 11832.315287 4497.321847 8466.420185 8348.876572 3537.735325 21384.687076 22655.291563 18497.832564 17677.102552 13342.462629 13339.468514 7462.135712 15484.338262 7755.541631 3267.143162 2547.303804 22402.817968 22304.200343 17615.681849 14682.997231 11333.183322 16437.007492 16459.372575 6585.529057 11521.047470 5251.447662 4267.209887 20730.385276 20425.795546 19290.927402 14538.952991 14016.308951 13298.692671 15701.392978 11347.609046 12785.284898 5689.338545 4150.842284 19620.504982 15671.349098 19521.792031 19606.180716 13224.527687 14130.503749 11314.471549 13753.027918 10071.339479 4237.884308 3792.376027 20438.283592 20160.754463 16603.113731 16482.584052 18706.310757 11767.396172 12863.797482 11016.280814 8003.580513 5028.048598 3655.515091 22929.794887 22511.355717 19229.824831 19589.492733 17215.221588 14712.597331 11569.428043 7530.494183 11317.795388 4810.695750 4844.941408 22601.751274 19752.512193 18494.099384 16899.022752 19236.742154 15492.072211 9408.227664 11439.563526 5262.682305 7441.409890 4415.332601 20603.480112 20999.935275 20815.317381 17481.290599 12618.953687 8708.926899 9441.641644 7353.022664 4207.619895 2986.552252 823.245153 20533.526942 18837.586733 21163.556694 17708.927094 11202.497090 9737.502506 6580.523805 4103.545560 5596.155142 5572.333556 4841.792985 20062.262600 20191.813516 19379.302404 13159.318126 9681.214380 11927.263986 11755.435161 5089.416224 6087.948636 6704.626267 395.381933 19879.173379 19275.213759 18547.617319 7560.134224 16526.773885 9305.564102 11036.513679 7322.617478 7762.289211 4411.885159 2933.189049 19776.799233 17063.871588 20071.529587 19298.884380 14004.196416 12852.482057 12903.896032 14673.448281 6556.156906 6649.127860 2695.205127 17779.505374 19129.434715 19285.519130 17150.984968 14271.910810 12481.320386 11998.369707 13156.610522 4614.671429 4850.695145 4501.520887 18281.145397 18142.044178 15621.670039 15333.922502 14392.684795 12170.255470 10143.098719 5465.431947 3479.902766 3676.123956 2152.668333 18016.166862 17785.193887 17523.666259 15168.327179 15737.189213 11129.482155 5984.178502 4845.403209 7431.055874 5121.394582 2801.933596 19113.339882 17540.618971 16769.989846 16567.018120 13400.849719 13662.391035 15573.706537 7791.196152 6105.557083 5841.654032 3504.242278 19655.249132 19004.564927 18219.898022 15289.695397 14977.337771 13378.449189 10363.310704 11735.242504 4139.757409 4292.601940 3361.619291 18086.720077 18039.346774 19914.746396 17022.789150 12315.147964 14394.184164 13944.583610 7235.792931 7471.430166 6392.965669 6208.170429 18865.919557 19813.484743 17181.068850 14651.637437 9827.542466 14346.870676 13008.437280 6872.225170 6364.730470 5816.512214 5440.068270 18569.868822 18337.501533 16353.414744 16714.325639 13327.520061 16579.857090 10734.431579 10370.938413 2786.352392 6172.123078 3394.663956 18889.287381 16348.521623 15231.686116 17078.074265 12648.308534 8895.473507 7228.492714 7769.782929 5959.923292 4447.677937 5701.820213 18228.051030 18720.890178 13405.952270 12977.330593 12684.253895 11389.971344 12124.524771 6869.506091 10770.579485 5526.977761 1245.650482 18709.812590 18408.640016 18868.230979 16060.989284 10268.371399 12295.295496 9407.409621 6671.839185 4736.553162 7842.327692 3518.401919 18717.800700 16732.512885 17231.830648 14375.488153 12916.136010 13574.311775 9392.892640 12487.340143 8938.058899 6400.957826 4114.869928 18153.964947 14181.938613 17259.153330 17579.541859 14230.487685 12275.092424 10845.271997 6740.511334 8605.718444 6840.569730 4241.840230 16802.541387 16977.768576 16387.124631 12307.885794 9641.273105 12956.809199 11471.739771 5781.810159 11932.681765 4109.568320 2793.364901 17021.456950 15489.832629 12381.783851 17286.193961 14022.055406 15553.762928 8035.052008 6360.035718 8286.831432 2870.482419 3638.477829 16677.616998 16112.087027 15621.641145 16443.785435 12083.359621 12936.258123 9218.308497 8417.121863 6244.726940 5967.713086 1944.770655 14892.386340 17294.309158 14144.990176 16660.928631 11175.700816 9899.182626 10609.240633 5813.141219 8572.656468 8686.770116 5020.800634 15233.232437 16241.761129 16288.477712 16651.671961 12952.177346 11517.182919 8718.479595 8517.111413 7549.304913 3704.267780 2716.711394 15956.975590 14852.684443 16335.734562 15655.286577 13644.377982 11711.018322 9126.922843 7343.532063 5639.858872 3819.860412 7525.155329 16884.670340 12483.092447 15812.424150 12823.420879 14433.547390 13676.223295 13514.078999 9332.002156 6221.405753 2761.276604 4762.470348 15290.623210 14804.576393 14232.866829 16329.686262 10672.380644 9055.166179 9846.821448 7273.490304 7644.806541 1863.762979 6057.901160 15023.666668 15493.152207 14105.374162 13441.821912 9071.968305 12735.373264 7828.328016 9708.512506 8421.399606 2354.040314 2011.365956 14209.633866 16313.216480 14468.395489 13513.116906 12311.065693 13615.226501 13142.315045 8210.502200 9364.753367 8043.129471 2844.543637 14060.330726 14402.357071 15488.432924 14652.603982 13817.866559 9754.168701 9814.035631 5721.816746 9686.244721 6105.876942 2104.454038 13703.953267 11468.297153 16981.747128 11704.101843 12389.374182 12260.961597 8880.047273 11205.358003 7394.890976 6466.301057 8348.904267 17454.586763 12839.065335 14097.197977 14897.416663 12550.080708 9240.148258 11770.771272 10213.162050 8969.242782 7479.209943 3607.789223 14902.677972 16910.659250 9777.302346 13388.197791 12875.702613 11968.495739 11469.445182 8987.256863 4646.065276 6845.587029 2393.027634 16106.858114 13450.201792 11774.703051 13039.292039 11298.028326 11068.100525 10771.236329 8088.434024 7470.087912 5650.483053 4906.911566 15242.529675 16020.660878 12464.325462 12365.955222 11434.410010 10459.042237 6418.129879 6549.078948 6081.340360 4010.316174 2890.807592 15427.133438 12053.498719 11337.675965 12983.317233 10992.551590 10557.661629 10188.435843 9546.288942 7846.066955 5522.141968 1507.814752 14779.492724 15334.530017 11265.030720 13445.935105 9333.099055 9858.823699 10719.151643 9223.086715 5586.493601 2831.745966 3448.200039 14226.551131 14887.467360 13561.157582 11909.854900 6729.880240 9950.506125 11421.308336 6861.887829 6960.566535 7587.526980 1800.147835 14307.792670 14456.775705 10718.928748 15075.272773 8275.865916 12641.685489 7882.786609 11774.405772 2468.959329 4586.098737 5367.916628 15356.969192 15248.753241 13344.219459 14229.788314 14127.382898 8337.547393 11010.076284 9964.611326 7756.777727 4765.729636 3922.213552 15736.980935 13105.486426 13343.188826 14043.718491 12325.998602 11217.648392 7884.228965 11097.805464 6130.616427 3846.859973 1929.562324 14740.545679 12748.956808 11627.228570 9076.077156 11913.234983 12500.208102 9952.541219 8319.962133 4905.668922 5784.268189 3014.524534 12965.933276 11131.821100 13371.785498 11214.498675 9322.605540 8196.321902 8060.152965 6395.212850 5452.808758 7083.950672 2772.631701 14013.036573 11914.835267 12050.104631 9170.280967 8870.292823 9493.590307 8476.862729 8903.788456 3152.326454 7084.091658 2405.532120 14835.572254 14046.954212 12560.781917 11282.344157 12142.842734 4660.654107 7196.516232 6450.561008 5210.042122 4074.529225 7430.709246 12891.560619 8642.772711 12147.294819 12843.212617 12042.175210 7567.619917 13842.543753 3741.402117 6610.859208 5589.761047 1829.120450 12376.814960 14801.646244 14154.964195 12954.730785 9025.182338 13764.803870 8897.300415 6939.553693 6158.972688 6791.888499 5131.904341 13744.513961 12869.008988 12601.412548 11886.503974 12158.022451 8940.310874 11668.454515 14484.154500 4909.158354 4951.904725 7076.466485 21279.384012 24033.886058 24913.422812 24362.451304 17378.652708 23430.151261 18026.837196 27099.963191 24954.712203 19321.864336 17136.194149 14156.713134 5403.480364 8389.267881 22464.822981 14317.391742 28343.012435 20335.161601 12540.120256 23857.252617 15583.369427 11908.217776 20174.535488 11341.922738 14015.910673 8780.827982 2289.423890 13402.456104 11973.056191 17505.490598 16471.017878 10306.213055 8874.822810 10753.938571 15445.316127 13880.615344 19046.205688 10504.270658 7105.008539 5392.810754 8104.488343 10582.004057 16248.231762 12941.362796 15358.457529 16798.341364 17867.549638 13458.841717 14871.205251 17776.332687 10389.068531 17467.180061 14714.577064 11921.065822 10485.536246 8534.073782 16734.968489 21009.789440 13735.032766 13362.950020 20234.893419 17913.432258 15856.154321 11694.837525 14624.900395 7061.327902 10395.572750 12886.468943 2864.713402 2052.694381 15248.211281 23363.327631 12661.347855 24871.434152 19741.754382 21551.115373 23343.188367 11513.260881 8459.787871 11929.206133 8962.300019 9395.981795 14870.275780 3668.256427 25043.003727 8184.141253 15060.375568 14913.309516 4998.689457 20468.453459 18497.179910 21017.993352 11486.230259 7805.584498 10505.868791 6922.536109 3832.752884 2281.615689 10197.102470 10439.430505 12797.715254 20159.089785 14807.930988 16046.214291 7488.455601 7878.954019 7254.835308 10549.412779 11655.868335 6840.725946 7101.505332 8505.346227 18866.942722 18619.394582 8200.105562 4957.253803 11258.476771 8427.694035 6524.009546 4728.049217 4448.300738 10844.638654 10415.253400 8319.777366 4406.250400 3107.233910 4959.043063 11897.778885 10430.058233 8658.879182 12838.751807 7738.269404 10727.544551 11086.290083 13856.159473 6893.785280 6917.322539 2641.899296 -2882.093592 -607.917197 6292.248851 9539.568769 21497.639153 15182.162330 7184.008915 9617.958953 8847.803554 15728.535193 8247.737506 12030.780304 16602.253727 8652.135218 6075.932397 3183.476217 10352.358229 6753.917453 12227.221411 22405.843151 10080.917250 14513.755729 7559.297273 14406.193532 7630.493478 8493.406935 8544.215076 19179.536021 6095.944455 6304.695124 7619.818242 6506.620307 -1366.086534 14599.261492 5376.397028 3683.782289 11301.520731 18024.791357 17630.016812 7620.347146 5375.343834 5311.615176 5389.115420 3706.614347 3903.435511 8025.213033 6061.901790 4315.631490 7415.727963 3678.861630 7823.932189 11997.071328 6339.984680 14289.008236 7426.956925 6603.836430 4258.108911 3334.173391 3513.432079 1306.240303 3465.693563 4198.484454 4902.529557 3205.404008 7002.252943 6384.497596 1326.804897 6432.260675 5889.543636 1191.461346 8365.724286 7394.131598
</DataArray>
<DataArray type="Float64" Name="Velocity" NumberOfComponents="3" format="ascii">