<VTKFile type="PolyData">
<PolyData>
<Piece NumberOfPoints="1945" NumberOfVerts="1945" NumberOfLines="0" NumberOfStrips="0" NumberOfPolys="0">
<PointData>
<DataArray type="Float64" Name="Pressure" format="ascii">
 27092.118107 26733.505110 27421.500963 27721.057007 26567.612143 28392.514439 26453.152739 27572.807491 29888.174374 29488.897413 28625.716085 26569.816486 27039.687214 28703.503829 28306.838604 29031.960103 30077.760048 28208.317611 29698.454021 28309.690374 29180.909930 28661.558442 25807.392901 26361.835949 27075.552551 29990.557400 26005.361540 27974.786602 27063.989982 28463.086995 29001.630958 25446.046523 28170.756982 26504.565377 25165.454325 26337.369872 26092.386165 28370.116865 27207.078589 28679.442385 24641.889184 26173.180580 21236.062839 22763.268915 21633.620597 22941.156807 23546.524762 24290.127404 24099.033411 22875.762581 25508.652639 23999.285445 26242.752063 23989.513833 25305.633885 22947.649831 24393.156159 23003.860947 22146.775815 20467.774062 23109.132484 21375.597379 21058.311901 20263.530445 22869.386588 21254.316327 24005.045370 21205.533184 23496.673422 21690.115648 19174.680282 19577.012202 20293.066469 18850.225688 23635.629950 22341.441543 18737.092464 19503.635701 18233.083604 20803.974522 17485.001228 19221.019372 20926.258151 21004.420564 19558.354674 20252.330924 17518.641438 19014.726022 17515.565124 19622.716956 18631.416951 19837.335583 17373.640669 18653.711942 18271.269828 19950.290443 18323.709171 20621.961421 18246.892000 19934.181125 17217.356303 18881.947238 17150.187264 17895.808739 20206.003908 20369.716613 19028.470215 19762.560336 18197.665168 20670.519722 17600.388963 19326.716714 17069.348389 17498.455176 19791.489891 20524.351428 18093.299662 17847.816615 20447.161806 19837.866348 18216.137686 18134.935168 18547.509669 18661.793389 16953.042390 17517.386801 18044.063755 18648.652043 17856.098884 17268.150490 19683.264698 18655.865848 18006.687473 19265.103117 16834.938321 18331.051030 16396.233507 17915.946687 17562.424163 19352.020310 16961.386729 18887.182744 16495.221707 18173.089173 15465.870822 16667.035075 16455.328881 17139.003762 15108.473961 16491.019029 15533.321330 17237.525386 15721.972659 17652.847067 16367.712935 16757.924089 16862.428180 16741.624820 16643.107120 17108.442431 15403.613979 17010.294894 15814.388558 17547.034289 15486.647909 16527.253770 14070.484108 15319.176422 14375.503930 15433.558466 14485.898366 16229.088690 15283.115357 15768.052640 15753.311474 14305.171477 15391.725093 14600.576173 14521.291522 15030.934789 14193.434713 15494.735348 13580.770207 14770.293050 14210.457873 14880.203302 16845.770131 15921.131363 15066.183241 14112.504568 13552.282625 13762.175159 13195.814000 15166.363978 13444.780611 14670.536248 13027.867089 14017.478013 12858.141787 14043.351514 13688.709026 14578.133473 12638.309062 13909.128046 12775.120513 11271.959523 14390.631576 14187.145931 14657.512661 15870.474654 27520.621740 29761.682574 29447.719168 25040.970952 24521.331988 23934.638392 21603.727393 20079.059783 18522.187823 18517.397078 17256.307883 14910.567304 13809.788025 12240.655073 10695.160372 10109.594177 9902.506935 9013.066803 8310.884592 7182.254424 6297.336345 5981.665810 5202.097108 3464.716561 1338.687602 -396.299722 -1603.961210 -2426.623489 -2968.024173 -3303.608320 -3488.360402 -3562.704053 -3556.626995 -3492.520385 -3387.157835 -3253.114828 -3099.815971 -2934.321816 -2761.923485 -2586.590479 -2411.304973 -2238.308889 -2069.284976 -1905.488926 -1747.845886 -1597.021832 -1453.479252 -1317.534558 -1189.495593 -1070.316472 -965.808550 27822.067095 29023.253505 30769.987972 23955.860939 24676.661586 24782.773194 21676.483544 20619.291453 17332.900405 19074.598307 17639.729721 14436.232710 14793.122521 12276.851904 9481.097545 9190.035439 10032.399404 7916.183768 7666.022507 5161.954586 4128.812499 6101.848454 6610.686609 4506.978313 1433.469531 -309.480312 -1530.225090 -2369.616674 -2925.157258 -3271.697469 -3464.765558 -3545.399104 -3544.079528 -3483.568894 -3380.918846 -3248.916230 -3097.148099 -2932.800065 -2761.258926 -2586.566573 -2411.759294 -2239.119034 -2070.357935 -1906.753201 -1749.245622 -1598.511643 -1455.014575 -1319.028384 -1190.563732 -1068.755977 -947.855217 14081.530463 12857.785329 10881.331627 9755.863611 8396.330259 7495.887597 4883.437095 2589.581633 3593.096180 897.231471 233.297940 2240.745325 2225.367382 2005.078362 1733.016969 1444.986990 1154.965138 870.781468 598.982877 345.520481 115.183060 -88.951723 -265.655362 -415.307831 -539.450332 -640.298313 -720.324047 -781.957568 -827.410563 -858.602914 -877.162026 -884.465383 -881.702094 -869.936174 -850.160949 -823.339372 -790.428910 -752.392169 -710.195800 -664.800819 -617.147497 -568.137683 -518.616986 -469.358633 -421.050322 -374.284766 -329.553726 -287.242182 -247.602033 -210.581990 -174.753665 15098.460201 12949.863909 11224.271895 10155.344349 8844.401003 7430.769484 6055.234094 4804.524337 4244.405630 3290.546486 2665.200761 2393.686113 2225.295732 1997.433809 1728.873037 1443.621286 1155.361209 872.564870 601.999840 349.566113 119.951315 -83.812820 -260.472090 -410.332660 -534.844886 -636.140098 -716.626009 -778.691232 -824.526863 -856.047942 -874.887112 -882.432218 -879.884111 -868.317490 -848.733975 -822.101940 -789.381475 -751.535430 -709.528897 -664.320140 -616.846062 -568.005026 -518.639412 -469.519774 -421.331904 -374.667717 -330.020846 -287.790265 -248.312042 -212.038947 -180.683469 -890.641713 -855.939147 -861.926443 -828.685214 -789.025977 -770.225572 -698.835462 -696.456349 -622.491590 -622.654618 -553.757225 -554.314958 -491.387778 -491.978081 -434.866300 -435.429670 -383.796401 -384.323081 -337.801423 -338.290222 -296.511677 -296.963110 -259.565321 -259.980433 -226.610996 -226.991121 -197.310277 -197.656951 -171.339654 -171.654567 -148.392048 -148.677000 -128.177894 -128.434752 -110.425828 -110.656496 -94.883035 -95.089419 -81.315295 -81.499284 -69.506775 -69.670214 -59.259604 -59.404278 -50.393274 -50.520895 -42.743901 -42.856095 -36.163379 -36.261679 -30.518462 -30.604302 -25.689790 -25.764505 -21.570896 -21.635717 -18.067204 -18.123261 -15.095037 -15.143362 -12.580653 -12.622184 -10.459313 -10.494895 -8.674397 -8.704789 -7.176566 -7.202446 -5.922979 -5.944953 -4.876575 -4.895176 -4.005396 -4.021097 -3.281986 -3.295200 -2.682831 -2.693921 -2.187861 -2.197142 -1.780002 -1.787747 -1.444775 -1.451220 -1.169937 -1.175286 -0.945175 -0.949601 -0.761820 -0.765474 -0.612615 -0.615623 -0.491497 -0.493967 -0.393419 -0.395441 -0.314189 -0.315840 -0.250339 -0.251684 -0.199003 -0.200095 -0.157824 -0.158708 -0.124862 -0.125577 -0.098531 -0.099106 -0.077529 -0.077990 -0.060794 -0.061162 -0.047456 -0.047747 -0.036798 -0.037026 -0.028230 -0.028405 -0.021254 -0.021385 -0.015446 -0.015538 -0.010427 -0.010483 -0.005848 -0.005870 -0.001365 -0.001352 0.003376 0.003426 0.008760 0.008851 0.015222 0.015360 0.023262 0.023455 0.033462 0.033719 0.046494 0.046824 0.063122 0.063535 0.084193 0.084695 0.110601 0.111194 0.143235 0.143913 0.182875 0.183620 0.230050 0.230823 0.284814 0.285551 0.346443 0.347043 0.413029 0.413341 0.480933 0.480743 0.544099 0.543114 0.593186 0.591014 0.614521 0.610651 0.588840 0.582624 0.489835 0.480466 0.282504 0.268997 -0.078666 -0.097487 -0.651634 -0.677144 -1.508793 -1.542566 -2.738919 -2.782718 -4.448951 -4.504700 -6.765469 -6.835216 -9.835695 -9.921552 -13.827834 -13.931895 -18.930549 -19.054797 -25.351398 -25.497573 -33.314045 -33.483463 -43.054207 -43.247294 -54.814776 -55.028994 -68.843502 -69.061508 -85.414539 -85.531975 -104.992675 -104.395890 -129.458057 -124.164240 -150.029396 -140.465524 -158.635298 -148.651473 28736.504577 28270.227964 21159.780293 27982.498263 26226.941242 22568.784280 25987.970787 26099.550606 24962.805354 22613.750538 24524.045110 30157.475839 28404.691399 22180.313851 28762.592113 16865.643322 14329.701609 17921.351925 21056.799157 20473.437704 23060.331933 19747.273283 28245.868595 27316.399515 28971.632277 26788.490664 25551.486352 28017.426253 17331.756033 25758.505484 20951.955912 7259.764929 26420.115075 31711.499554 27490.084795 26340.708933 12861.975028 22667.201955 26534.035548 24572.041976 14249.113658 21997.400331 15019.290703 27438.029469 19783.955733 9864.317337 27040.896829 30276.066926 31052.448219 21620.852241 27308.648910 20663.238109 13369.367258 21001.962859 20971.075951 25663.951428 28888.280278 28856.394994 27719.613216 27216.559396 23372.760298 26194.354294 27615.049973 24916.002579 20445.846197 26981.894278 25912.955612 25833.697212 28117.726276 29926.407347 27764.343870 28881.881009 28296.538836 24352.137355 22947.298551 21674.858245 12885.535922 31039.247450 30543.960473 25086.707068 25423.723027 29479.590766 25010.473870 19881.222070 25348.795625 28587.865741 16829.278685 16805.606045 28395.771865 25251.096303 21787.789092 29321.414605 26395.660153 21705.142254 22871.141906 26374.363647 25160.959013 12162.569512 20480.471615 26594.336079 25449.357886 22992.206386 28041.960217 15924.469146 27072.982676 18157.153852 23071.897400 25762.400556 7670.674248 18401.148646 28386.775881 24903.983214 24964.601426 10464.958169 28722.532577 17347.041924 24562.693894 11078.464824 14956.132419 8847.746634 7649.196989 26300.520392 27903.848825 14392.257046 25069.993762 10557.156278 20478.471243 15179.688402 14958.748825 19643.128059 20769.922867 16786.958967 25019.539416 29425.321582 23153.241713 23895.968887 15549.497784 24388.313549 18278.273619 11202.768618 20120.604415 22215.840533 16657.620784 26316.271804 25014.752783 24424.882125 24797.660086 23483.693120 21009.369957 18791.139308 15836.876039 20237.813936 10618.046564 16562.627945 24130.634072 26061.039800 22883.845565 24123.009198 20869.398229 27236.571703 16055.021360 16899.466963 9844.820674 9627.853810 10987.232437 23586.910753 24241.405922 27554.010784 19153.152508 16895.143593 16871.829887 16743.794410 15296.092066 6382.483241 7206.491507 3359.550731 25075.000320 22028.876962 25466.141021 25405.230371 23402.472758 22927.866945 16787.173212 18968.788764 14284.373521 1085.978302 3399.668656 22962.283129 19835.295201 25392.556373 18461.679023 13068.380849 7321.733470 10347.148795 10087.117300 3529.240601 6868.974538 6233.374823 21903.723863 20409.309793 19131.409136 21883.616131 21983.690324 8184.798701 16632.506798 8819.335346 11506.426537 5129.661804 4574.363230 22465.200549 20176.136255 24621.338696 21110.896382 11064.761486 11294.585572 10905.117610 8097.079244 4715.368669 4132.323527 3900.504540 19950.148545 23368.720672 21718.671302 21645.137075 16896.021574 10629.346307 5797.595026 5232.550665 5356.824117 2595.893515 3686.448643 20297.815434 20952.863049 19250.792874 17106.531119 15934.116427 6241.745324 9309.200643 4831.192997 8120.168530 3395.558951 2507.751613 20362.180360 20892.423888 20461.187514 14477.595851 16317.933377 15716.015148 7477.376323 8011.977019 6705.111867 8042.874620 3533.673528 20807.852654 21294.296721 20787.440756 18674.201248 12634.020017 13800.151430 17102.530811 15209.859725 8499.337670 5916.816197 4256.526703 18792.176698 21667.939077 20856.279690 18616.205111 11942.799542 14724.894694 10449.667488 1875.582964 13935.543349 7210.303471 9097.639655 20494.618529 18434.639815 18780.247849 19187.884858 17933.215075 12404.025082 12169.876278 8911.743712 10121.502567 7697.488471 4754.328026 18991.337138 21500.343905 19024.383488 16011.995207 19876.742358 9494.727196 12073.489014 4845.144737 7761.117557 10221.802414 3593.538674 20202.387178 19422.381814 15580.912655 16218.041030 12035.721706 16776.043443 10878.889370 12214.706324 4964.311018 3552.521731 7051.384042 19275.603976 21635.886174 19204.837043 18548.681588 17300.398200 12359.863606 10350.476444 9763.660308 8428.743864 8030.057701 4671.916355 19862.812475 17942.796115 12990.708869 13828.870240 15992.953234 9687.593484 9865.145572 7393.906597 7272.231704 6756.250778 5580.679129 19411.939131 16971.286705 18692.737047 18003.554805 14969.499736 11945.805236 14351.146114 7453.843307 5738.573512 8082.709121 4449.518988 21005.585490 19180.020442 18510.419334 15220.163243 17009.714936 12075.911088 12371.396204 10164.688764 9346.520261 6050.977000 1997.063418 19984.887472 12610.880370 19302.529678 14527.223027 17244.204698 11507.698523 7620.203349 10639.234066 4669.689327 5420.582204 4635.641309 19530.712107 22676.937278 15796.712125 14466.185404 15750.681007 10465.749539 8827.776528 10045.528817 5431.380686 3391.397215 3215.275289 18392.205070 17316.034094 16359.545585 15324.170124 17083.461598 9378.099185 11457.794303 5704.760398 5453.251570 8574.395314 3560.508391 20126.838320 21913.654877 19064.405456 15563.754295 13568.288768 12817.938056 10545.164640 14381.623980 5433.480974 4187.916025 4777.066458 19086.193469 17144.982097 14043.837290 14502.724955 19598.449342 12959.817618 12936.488364 11736.471179 9194.134554 5365.542384 3553.082727 19332.428546 20825.372091 20132.907068 16929.855125 13609.562637 10998.982459 10239.488113 11245.772015 14733.114061 3733.586523 6912.045005 19308.079547 20035.334604 16168.254815 12316.673717 13709.379925 10131.686359 8073.130185 4303.433388 8391.431912 5433.942744 3059.099792 20776.625623 16632.191868 17951.270160 14460.214818 7725.323416 10859.707144 5871.091886 8882.086164 6296.878833 8440.425340 3959.688947 19376.040088 19525.484894 18308.158157 18731.604187 15453.321973 9574.811033 3372.593193 7748.933980 9398.105586 4067.057801 5266.634733 15910.011913 18844.173573 14764.100948 14257.786154 12616.401449 12795.751372 13948.341425 6864.036906 5573.126972 2932.935841 4208.422391 19922.358792 21591.392905 16493.809851 12925.556479 15559.774924 9942.516452 11475.798534 10024.116700 8837.342309 6404.111919 6844.508867 20093.002626 16575.068001 16328.699105 18358.375922 10773.454992 12147.201734 6058.352949 9167.276173 5763.854748 4606.656826 3747.341626 20025.650599 19337.863848 14823.409207 9990.609423 13540.287531 11293.772156 7249.082940 14581.553884 6026.389781 8579.083403 5728.275556 19612.912356 18853.103420 17536.517490 5927.009194 7498.514908 8105.005694 6404.429153 8894.548016 4221.474669 8686.736576 2853.657566 19417.975016 14181.446075 10936.706195 16698.101416 11392.716206 15518.678348 11140.184190 6245.465430 7738.502992 8052.753569 4976.283118 19588.139021 19497.556446 15439.342171 14342.236278 11695.762568 12374.255608 7073.043394 15927.863316 7729.235115 2765.513884 4500.656969 20416.479535 18530.090682 16586.432146 13978.272274 9806.599556 14682.606266 16077.815255 5441.409004 9610.767900 4911.839881 4145.054136 18455.431925 17093.236452 17540.172445 15403.547666 13206.462519 13511.112262 14510.870225 9288.722381 12312.201386 4318.407772 6163.842921 19123.998272 16417.100471 18611.648294 16273.604667 13320.028889 14048.621385 9374.792326 11945.485430 10101.762895 6453.791056 3205.883342 19999.432737 20877.547585 16154.775925 15370.808666 16450.171686 12799.419992 13025.064198 10339.473983 7793.632789 6130.280957 4070.037529 19946.944765 21424.397494 18716.787682 16686.573801 14853.841454 13140.335024 11318.637841 8153.322624 9825.279645 4747.250111 2867.232845 19387.627128 19001.994961 17637.338586 15465.313042 17875.054500 15191.249403 9359.085861 9608.687365 6720.545563 6202.567205 3373.620044 18656.058816 21246.559862 21017.679696 14554.659002 12152.176521 9110.563246 7383.340467 7071.499620 4017.877397 4690.745988 6188.731956 19292.582704 18049.591871 20492.180664 15860.311320 11819.633691 11087.979853 7477.980393 4586.894723 5974.673924 3487.649892 3767.386407 20866.367287 20413.007059 16847.728097 12783.494161 8862.320917 11015.530810 11075.995676 6592.680404 5996.141267 5803.888914 3282.526622 18171.189853 18300.997874 15763.539031 6822.928583 15551.607974 8912.140317 9916.599433 6759.597770 7927.740434 2880.686481 5160.220380 18079.651369 15898.799751 18170.097689 17132.267334 14196.287555 12997.460348 12191.139936 13827.932941 5465.883667 3838.947758 1346.772606 19799.648837 18102.565876 18271.670508 15807.091078 13591.824326 12115.221889 11496.110662 11293.120492 4960.518771 4364.637166 6127.780833 18392.309347 15389.586650 14359.944321 15491.831403 13526.835415 11630.405491 9430.133676 2672.194845 6092.587534 4562.301848 3766.304059 18813.918994 16936.454118 18358.822827 13766.210844 15090.513682 9664.599092 5408.150311 6272.099989 6701.548519 4836.613245 2278.396488 17778.586747 18183.470136 18379.648661 16010.061767 14334.054033 16020.960963 16503.740505 7708.984845 5769.968604 6220.179333 5405.861654 18185.800253 18240.504181 17786.193027 14271.265168 16321.363815 11832.235861 10354.618846 10694.460017 5341.065841 3940.311974 2770.718486 17366.303987 15936.743458 18381.658057 16908.731722 13205.679041 15103.665949 11391.542468 6887.553206 7463.235251 6929.821145 3797.269868 16223.222894 16768.885548 17061.540615 13674.243828 8154.390804 13604.297158 11927.310643 7714.924950 6813.523297 4443.179078 4532.885470 18185.503304 18494.475531 17029.713215 15969.634150 13872.317648 15141.330743 9988.389780 9401.074070 3308.668473 6063.813393 1993.733026 18458.929709 16870.959276 15627.351827 16003.851955 14845.512301 9872.185538 8379.883335 9778.876422 6049.299279 6977.052150 3675.231818 18973.407761 18911.079079 14301.321029 11627.063990 11295.499912 12251.233976 14340.422115 7398.310475 10530.207764 6296.287985 2352.019840 17514.023083 18048.840423 16317.456852 16102.548052 9711.878931 11287.194004 11461.558044 6232.668465 6465.276460 7964.435870 4756.819151 16651.004476 15879.345598 16158.553384 15565.067578 11418.933424 14060.253326 10717.373000 12741.916977 6687.299990 7982.452038 2023.706194 18659.437075 16932.062364 18650.506459 17239.992449 15637.063041 10840.719834 10218.876129 8704.047404 10036.087865 8492.425401 7127.783878 19398.325936 16317.597676 16670.516013 13305.868074 10375.246922 14929.813693 12188.537981 7228.548107 11655.837173 4733.442527 3998.733993 18985.525116 18271.117373 14374.259198 19494.224188 15708.614685 13371.098318 8758.189965 8990.814940 7390.021455 3754.920426 4470.734537 17030.519056 17558.923388 15614.642921 18109.007645 16127.767703 11332.567068 9278.810566 8617.614733 6772.586351 5946.034133 3663.965720 14269.422135 18709.907583 16479.633965 18147.639041 13467.253061 12220.337937 13801.203722 4698.521336 9915.664361 11284.341099 7281.034759 16865.722884 17687.688449 16202.874845 17228.032164 14337.280237 12183.855850 9870.957434 10194.280297 9099.540632 7356.257171 1744.608411 19100.074048 18426.297428 16706.584894 16987.567780 13846.196781 11488.082908 8215.913451 9184.274938 6537.353360 6160.464066 5978.675643 17583.692091 14044.912629 17316.300433 12787.503883 14024.078125 12890.230017 14571.266368 9223.892363 7203.824899 4267.041195 5803.113830 16104.588336 16139.541088 15349.838578 18721.214687 11909.740030 8951.980203 11842.282330 7831.226863 9404.592948 7030.391368 7560.477365 17170.159689 17850.236246 16343.598335 14982.116357 10830.158203 13005.762198 10065.393804 9941.930513 9950.868020 5504.521591 3178.475137 15503.919289 16859.969611 16254.252743 15636.279386 13281.055148 12922.406612 12109.713255 9389.307257 9638.027310 7566.351626 3372.642103 15479.241679 15012.570910 16095.483452 15550.361786 15366.741797 12392.227846 9420.929891 6415.427795 10991.413561 8745.692582 763.435580 16472.269470 12659.796731 15499.820180 12782.665797 13265.390360 11907.156714 9286.397134 12329.711083 7787.448673 7101.304221 3602.385833 16237.485319 13254.394857 14335.291532 16915.264692 13074.165064 9727.132167 9824.833633 10050.975538 8460.033034 6666.786622 3519.264564 15341.886126 16074.916996 11312.886283 11354.870503 13408.104912 12276.264155 12954.693439 9711.941981 5517.363328 5765.729635 1500.687349 16247.717436 14267.472018 12528.922364 13645.937445 12050.735689 9466.087421 11032.604994 9027.014351 8357.981944 5925.834539 5162.985568 16273.495598 14965.892909 12244.131469 14172.946629 10999.812826 11685.488003 5723.324569 7530.567715 7039.731113 3898.032513 4883.743905 15106.638039 10427.255994 12578.974772 12911.762849 12318.731571 9882.274857 9511.257894 10810.319202 7684.889457 5209.183081 4184.854986 16158.057069 14080.995114 10475.732721 12317.992869 7991.536674 9406.526784 10152.795633 7807.307038 3409.969466 3093.693005 4449.253251 14730.049198 12771.573206 12860.889225 11980.181927 7819.967575 9475.361224 9486.668344 5337.340582 7367.143673 7179.835527 1310.987548 12259.541966 14483.112325 10624.083758 15429.868954 8555.067761 12254.491969 6851.688589 10127.916151 3380.364646 6367.724802 3686.810196 12620.075905 13121.141981 15857.106454 16615.948076 16097.847451 8381.314934 9193.332778 9206.245336 6705.837756 4167.308229 6336.512522 14359.895768 12125.687370 12131.781354 15160.764402 12714.863039 11337.142475 6771.229920 11092.535296 6511.420956 3637.196169 845.522181 15423.412902 10684.886144 10329.160900 10570.755951 11540.997714 11985.361210 9978.358703 8844.079336 4348.308505 5275.716309 1162.627735 14530.684604 11915.961709 16412.474993 9940.251907 8684.005081 6772.489944 8642.642189 6399.634677 5595.542373 6629.188045 3061.320157 14790.069733 12594.196397 15331.965604 10171.491065 10381.103253 9932.957088 8678.276019 8054.503445 5041.128942 7578.279193 2873.530618 15669.858665 14492.259255 14102.784654 11864.431101 10687.576890 5353.044521 7376.151548 9241.415589 6320.064460 4693.502967 7808.039337 13886.331380 9254.920996 11940.416320 11895.956352 10021.970000 8656.491178 15407.144728 4032.801252 6725.446962 6423.443932 4422.495075 15882.065647 13242.751976 14245.822342 13501.010177 9102.145033 15829.052634 11302.901377 6614.826788 6332.429410 6580.897694 1736.837066 13228.787939 14011.838688 12097.979509 10141.031213 12456.169976 8732.726762 11254.433953 15404.790780 3855.621672 5827.634490 6123.868412 20541.579831 31603.172559 27829.006281 25215.924637 17089.527028 24045.783461 21809.364501 25180.098574 25524.406854 18454.768547 17160.467572 10801.273773 6517.728172 8390.521876 25037.723103 13200.666973 26626.445974 22062.005046 10001.601956 27243.006203 17113.292792 11000.199701 21383.420853 8832.185011 13068.597049 7737.645020 7697.636056 13596.712923 11527.782590 19978.731249 17295.574247 7509.061070 10531.757223 10976.443952 12176.630150 14434.508868 19997.524841 10444.538557 5586.299973 5098.017993 4598.729111 6517.192583 16949.795338 13090.943444 14773.245655 17556.563124 19665.775850 16565.784388 16053.190197 17602.283099 5895.245786 20115.239433 12455.589637 9165.439309 6853.056608 6520.333528 17966.218628 29123.207677 14574.595373 13504.779851 20591.217900 18732.440481 17197.787250 13155.494656 15364.762523 7029.422956 11560.033557 11781.211311 3154.109109 2057.483277 15407.408945 25936.341813 13879.501900 27618.865484 23467.583896 26310.901092 26112.269609 12859.411780 9675.019527 9849.953908 9037.214715 9635.365585 16603.037656 6318.333413 31766.778286 5828.090370 16360.739276 18328.637301 6749.283775 23728.854698 21365.698276 23838.831132 12528.513750 10176.522808 10623.202444 6753.043206 3684.119792 4833.392674 10202.129567 13270.885447 11188.320573 21795.592090 16097.525879 17557.464523 7807.526655 6857.831431 5029.906120 7226.571643 12911.540632 6151.886705 5114.810431 5160.156755 20042.050441 21492.080683 11791.029055 6296.781798 14515.911063 9013.461856 7225.640238 6421.147727 3612.341166 14065.675119 9396.164073 8769.078718 7972.572032 -1892.813340 9324.317276 13706.819433 13778.406356 10018.852097 14971.671038 7957.728064 13034.242589 12009.998927 14723.697563 7584.383344 7213.901232 3877.738484 7569.954300 410.922452 9669.663959 10445.999834 20739.412107 18953.516361 6241.040700 8396.413948 9612.868950 17456.933673 8216.596593 13982.706207 21279.255897 9443.269825 4836.825202 4474.885430 12014.928388 8240.806702 12252.680440 22252.455999 12267.803808 15731.093253 5928.264636 13167.191873 8100.635851 8693.263588 10174.909920 23474.558127 6563.233800 4585.860199 7200.108509 4431.047051 3459.820210 14739.071420 5908.302727 3270.574272 11488.482729 19338.477720 17695.537001 9298.644186 6632.263173 4757.265720 5663.887068 6099.456646 2147.923725 8988.807885 2032.771568 6072.299475 8480.317020 1094.292564 8153.718506 14107.070171 6186.484216 14274.923694 7128.716468 5224.096854 5352.209304 5593.174693 6566.585267 3210.762249 6836.339117 5145.476078 4628.445218 5303.097847 6840.260955 6172.860114 2095.176652 2590.711589 3591.464055 5748.245319 2743.703348 4594.023854
</DataArray>
<DataArray type="Float64" Name="Velocity" NumberOfComponents="3" format="ascii">