<VTKFile type="PolyData">
<PolyData>
<Piece NumberOfPoints="1945" NumberOfVerts="1945" NumberOfLines="0" NumberOfStrips="0" NumberOfPolys="0">
<PointData>
<DataArray type="Float64" Name="Pressure" format="ascii">
 21972.003131 23122.855387 20628.354229 22821.862157 19582.992556 20575.609667 22040.914921 21527.223339 20952.705850 21058.710435 20927.691316 23410.790582 20476.036420 22644.588187 20536.279537 22227.569979 19734.134052 21183.824521 21092.763371 21061.402020 22471.225982 23346.449091 21651.228934 22740.738074 23458.228494 24328.364375 23571.028907 22416.206900 26377.734343 25829.745387 23405.602701 22932.661866 24657.892022 24264.411513 21790.445168 20717.042422 24708.093294 23396.904604 22169.290835 20854.898152 25852.858498 25587.236393 23470.253098 22962.326740 25844.904972 25812.574230 20362.791994 19685.493707 24366.927473 25583.295141 26433.961779 25408.380597 28317.393886 24462.340988 22934.513260 21767.154719 26224.725287 25717.661227 27264.538121 23691.177985 24709.913384 21001.498239 27634.394548 25481.951903 26256.484570 24084.758710 27378.787274 25183.907651 28449.464649 27026.831119 21630.706658 23097.493515 24908.231596 26088.086048 16734.964314 18520.415755 26277.444838 24648.664275 28754.240419 26869.625589 24296.830408 23620.918626 27512.674230 27221.554278 21063.737845 19840.416166 22307.467734 22579.784497 22385.247411 20618.506696 25672.996258 22059.198289 22742.866137 17229.136648 33619.760267 25630.561156 24529.541307 18748.629286 27256.342003 27003.222834 20855.696615 19302.501658 25617.281892 25581.836868 20279.854016 19849.019782 23921.798826 23286.290644 20063.762933 18779.884571 22503.878525 23070.295630 19927.213460 18312.947279 23224.324329 19770.774912 19398.577761 17200.867097 20808.511101 23122.425590 15180.060219 16840.504504 22946.554428 22495.412694 16446.934858 16776.074336 18882.902119 17697.695317 22049.148573 23107.304407 17991.790093 18244.952995 19815.854332 19257.256458 14516.962301 13826.505538 19034.512813 18895.228116 20431.028286 21788.658323 14273.325561 14607.928114 18473.095195 20442.448694 16622.077666 16424.171727 18847.865671 18685.730146 19614.933447 19991.250347 20068.461059 18090.034349 20502.614770 20396.741312 18531.201086 17745.960789 19601.903532 18601.878537 15793.329879 16017.983996 17447.611566 17095.198153 17180.812852 17362.051603 18093.931164 18360.675598 19536.841408 17060.416725 21052.558426 18621.012942 20664.774512 20293.813185 16507.849948 16398.197933 19025.957592 19400.197925 21233.059614 20613.818206 19808.131207 19790.146527 20464.119451 19704.574792 20231.773774 20619.540517 18714.678577 20593.292364 19171.875971 19261.609074 22252.616525 21489.663197 20272.279390 20633.489308 18843.094813 19120.961568 18767.635338 19564.328286 21364.401810 20099.865029 24238.907765 22665.150912 21749.688445 20357.367836 19248.142834 20055.528901 16345.433551 18163.136645 18375.386778 21081.107934 17765.670090 19675.694928 22498.165167 20577.556843 18086.206076 16000.199189 14441.861162 12926.633959 11858.832820 9193.384951 7233.018840 6359.143481 4439.781649 2789.062353 2171.764161 1931.369055 -552.640650 -3920.879300 -4616.668699 -4976.863308 -5376.615426 -5690.340017 -5891.575383 -5990.393859 -6003.924539 -5948.893034 -5839.593299 -5687.694427 -5502.645388 -5292.178074 -5062.722816 -4819.700037 -4567.710737 -4310.661175 -4051.851092 -3794.044364 -3539.532010 -3290.191369 -3047.541947 -2812.796935 -2586.909218 -2370.610997 -2164.446816 -1968.800305 -1783.915446 -1609.913426 -1446.806264 -1294.508587 -1152.850203 -1021.600677 -900.571520 -790.177512 -695.110951 24321.929003 21696.810656 19523.149642 17080.327713 15834.403074 13647.970126 14428.168509 10493.044703 8165.989435 9112.147402 6542.603325 2815.812320 2449.093895 2371.792297 -1663.810160 -5242.741983 -4755.991753 -4934.624004 -5354.608786 -5668.338700 -5871.181059 -5972.958700 -5989.692902 -5937.561794 -5830.705203 -5680.814529 -5497.416008 -5288.318851 -5060.012994 -4817.960106 -4566.789117 -4310.426257 -4052.187137 -3794.849598 -3540.717651 -3291.680862 -3049.270035 -2814.708504 -2588.957950 -2372.757965 -2166.659124 -1971.049876 -1786.178017 -1612.167750 -1449.033409 -1296.690629 -1154.964146 -1023.582411 -902.094690 -789.320507 -679.861599 20103.596920 17935.543105 15435.183437 14100.696088 14935.259842 9701.273689 7993.671549 6034.454949 4495.789113 2369.016160 -3441.401840 -4587.094680 -2096.702185 -1313.389338 -906.257034 -607.671793 -391.882048 -258.343656 -207.328398 -230.868014 -313.462264 -436.186459 -580.594699 -731.083174 -875.724450 -1006.098590 -1116.673148 -1204.114480 -1266.720707 -1304.025440 -1316.544407 -1305.610643 -1273.247470 -1222.044855 -1155.022701 -1075.478901 -986.828866 -892.447299 -795.523437 -698.939220 -605.176908 -516.259319 -433.722787 -358.620229 -291.549778 -232.703193 -181.927489 -138.791919 -102.643737 -72.575183 -46.916860 18017.877008 15886.894143 14024.940958 12932.117875 12417.363574 9833.430078 7799.199607 6121.088821 3956.391557 2017.726617 -186.575882 -1424.726006 -1597.663082 -1273.045271 -913.452866 -622.039465 -407.710633 -274.486501 -222.261199 -243.128638 -322.237586 -441.391476 -582.650976 -730.641282 -873.455794 -1002.584979 -1112.374004 -1199.378589 -1261.814380 -1299.159668 -1311.893447 -1301.321087 -1269.440177 -1218.813058 -1152.429184 -1073.554206 -985.571523 -891.826279 -795.482548 -699.402871 -606.056565 -517.460033 -435.149240 -360.181916 -293.165093 -234.302424 -183.455432 -140.214533 -103.985779 -74.159355 -50.813342 -627.749996 -596.818257 -603.492356 -574.179589 -541.661135 -525.399069 -466.580684 -464.643925 -404.863401 -405.112628 -350.778444 -351.347036 -303.007267 -303.582103 -260.886172 -261.417821 -223.879489 -224.361794 -191.491669 -191.925885 -163.255829 -163.644628 -138.733817 -139.080229 -117.517461 -117.824640 -99.229393 -99.500522 -83.523240 -83.761469 -70.083261 -70.291659 -58.623512 -58.805028 -48.886638 -49.044072 -40.642389 -40.778371 -33.685929 -33.802907 -27.836030 -27.936260 -22.933185 -23.018728 -18.837716 -18.910445 -15.427911 -15.489512 -12.598211 -12.650193 -10.257490 -10.301194 -8.327430 -8.364043 -6.741021 -6.771584 -5.441165 -5.466588 -4.379415 -4.400489 -3.514832 -3.532242 -2.812960 -2.827293 -2.244909 -2.256670 -1.786553 -1.796171 -1.417818 -1.425659 -1.122064 -1.128435 -0.885550 -0.890710 -0.696966 -0.701131 -0.547038 -0.550390 -0.428190 -0.430879 -0.334251 -0.336402 -0.260214 -0.261929 -0.202030 -0.203393 -0.156434 -0.157514 -0.120804 -0.121657 -0.093040 -0.093712 -0.071467 -0.071994 -0.054750 -0.055163 -0.041833 -0.042155 -0.031879 -0.032130 -0.024230 -0.024425 -0.018368 -0.018519 -0.013888 -0.014004 -0.010473 -0.010563 -0.007878 -0.007947 -0.005910 -0.005963 -0.004423 -0.004463 -0.003301 -0.003331 -0.002456 -0.002479 -0.001822 -0.001839 -0.001346 -0.001359 -0.000987 -0.000997 -0.000715 -0.000722 -0.000503 -0.000508 -0.000332 -0.000335 -0.000181 -0.000182 -0.000029 -0.000028 0.000147 0.000152 0.000381 0.000390 0.000720 0.000734 0.001233 0.001256 0.002026 0.002063 0.003259 0.003316 0.005174 0.005262 0.008130 0.008264 0.012661 0.012862 0.019541 0.019838 0.029883 0.030318 0.045256 0.045883 0.067837 0.068729 0.100588 0.101834 0.147448 0.149160 0.213535 0.215844 0.305324 0.308374 0.430740 0.434679 0.599120 0.604077 0.820926 0.826984 1.107091 1.114235 1.467832 1.475886 1.910743 1.919288 2.437964 2.446228 3.042216 3.048948 3.701510 3.704838 4.372413 4.369695 4.981843 4.969523 5.417509 5.391003 5.517317 5.470965 5.058250 4.985488 3.745249 3.639765 1.199292 1.061788 -3.066362 -3.186470 -9.747965 -9.508359 -20.520636 -17.543878 -31.047750 -25.096194 -35.779319 -29.284730 21485.127859 20980.025788 18074.812805 21795.141935 22312.198578 15537.325441 19816.019020 21404.292244 19480.500379 16245.640413 18610.317112 20395.386889 19722.394460 16228.717465 22345.525606 14116.227462 11736.717177 15916.842546 15679.915821 15710.081697 17115.621621 15771.633789 22120.150239 19346.602837 23233.033324 22086.906815 18638.979974 21592.780369 12809.706041 17067.883171 12919.636176 5364.698089 21228.606641 21706.182024 23187.671139 22304.798640 12834.137142 18502.469761 21259.268004 16427.620782 11306.307610 15925.263226 10232.300693 19864.091318 15507.602317 7672.444434 23271.683400 21107.210111 22468.649484 18488.678299 20907.576184 19019.616180 8127.937746 15102.023582 15770.272275 17456.389610 19552.253522 20583.203877 22622.771778 20119.332440 17847.577220 22510.946594 18372.685833 16208.087367 13631.467330 21062.095030 21268.109945 18886.699030 22556.430790 19853.691168 21177.705507 19406.097046 19601.020401 18880.500766 17665.347016 16746.010629 8902.804751 22710.428947 22614.139055 22197.039738 19525.715969 23662.791417 16986.309840 15056.146273 18794.651732 20043.947170 12782.905719 13613.942890 21755.533209 22069.559140 19083.655576 22738.925275 20127.203281 17684.211375 16173.357025 19585.562065 19380.536139 11909.003415 16145.369524 23159.131947 20084.278984 16737.486528 20202.452785 12264.970010 21228.370349 12437.408243 19161.206766 21459.994175 7752.960503 14030.791161 23856.597555 20811.962679 21535.518298 5943.386620 21183.962984 14450.052710 19891.639896 9664.317587 12429.882510 10658.158565 6004.442976 24298.294168 22176.070711 11910.951571 21271.716528 8603.710844 15797.100206 11181.323901 13445.944783 16216.362118 16171.832932 15020.983489 25197.270338 20965.740399 20248.456179 19806.756409 14387.261300 18732.677595 15582.169772 10766.104092 20936.872957 21709.127046 13501.144378 20921.811044 20942.056840 19665.405501 21414.587046 20063.616440 18683.300176 18529.981961 16066.283035 18131.108779 10758.100564 12213.328563 22539.048486 21617.452640 26536.917441 20677.143672 16749.815415 21397.520780 14327.539392 15030.538122 7178.921499 10550.819345 9538.552591 21707.622562 20798.685846 20634.311202 17722.812194 16810.077767 13830.565967 14314.508625 9504.374959 6593.677425 5170.508052 1828.772027 19451.267147 22487.654586 22516.360309 24156.710183 19347.634339 17619.526736 14326.532259 15500.168053 10579.803184 2818.777016 949.592684 23044.957138 16918.057178 19288.436081 15210.179075 11492.461246 8295.723964 4185.369457 9255.051536 7768.271947 4446.477834 3445.839162 25324.059594 20930.905017 22023.224556 20828.758976 17091.174410 8615.351961 14243.934863 5814.454963 9454.954035 6889.739167 9423.665714 23750.107270 20358.357821 23587.322896 17867.296600 11613.571232 9225.201410 10575.502253 6283.766909 6502.871392 4389.183238 3748.931016 23064.976539 19989.786479 26035.554510 20306.024607 12652.975990 7246.542170 7231.499077 4826.554524 3170.710414 3590.877593 5258.576184 18932.553544 18868.635393 18016.282779 16441.360967 15503.508373 7070.064375 7570.738078 5912.221970 5334.307018 6643.815788 4051.226871 25141.353531 26075.350286 22174.562729 13337.538438 14702.481343 13300.675000 5908.892849 7017.307855 5642.875878 6239.167188 834.315286 25687.484783 22605.802544 19544.725337 15292.206963 5813.403117 10376.886314 15158.268471 11779.728854 9623.241466 4770.453076 3644.936975 20725.276216 18310.962978 19534.775627 14757.031354 14359.674923 13818.773958 11165.945264 3676.976555 11393.610977 5291.687702 1377.386686 22781.784072 19592.242104 21782.387469 20088.358919 18435.252856 12875.569204 10062.011995 8465.800902 11664.140122 7828.450832 3962.078666 23537.881858 18630.205393 18680.960107 14898.235420 20966.115231 7157.040320 12863.055024 7265.495423 4301.026326 7377.240852 826.394790 19695.378943 15971.516590 15485.021977 17081.666420 13356.474590 16552.475516 10033.031365 13855.897913 3348.876491 2491.204620 5581.077279 22533.619891 22010.257586 17433.527547 18591.086234 17190.841122 10697.332543 6904.206254 9809.755662 6082.631060 6070.631408 2213.169638 22898.523563 21052.501812 15645.463335 11264.671385 16116.535401 8477.684190 10223.245935 4274.394274 9024.948074 8402.064804 2332.493246 22485.029480 18148.027666 23188.456288 16159.990705 15446.057587 8603.392160 9615.827579 9165.468106 7039.093157 5670.890712 5370.081898 24454.575695 23675.299604 15678.589130 17416.115875 18100.481575 14981.521402 11624.219595 8607.415439 11091.424899 9291.716210 2485.831928 23640.191051 11038.524426 19054.261341 14951.719909 19927.478889 11823.852849 7600.022150 12945.013364 4354.902176 5221.795590 3219.657288 24898.129237 23469.651011 22010.044242 15934.693607 13744.875370 11565.717475 11144.876595 9230.551035 4665.639413 3115.930477 2963.340637 23238.401335 20661.285640 17599.624702 15093.182560 16562.261600 12551.258907 13404.117023 5884.357227 5586.242862 6181.825505 692.197959 24700.005670 24502.791764 19481.254171 17273.299915 17386.893595 11616.864430 10931.655095 10699.828687 5044.667005 2121.322669 4027.881540 25079.638704 21334.858819 15649.051935 16329.696187 20858.826660 13722.956916 14265.372280 11642.137443 8357.405411 4603.628721 101.661263 17110.785956 21876.530255 20816.855062 17954.680448 14324.543896 8723.437798 9972.880909 9528.882034 13599.783686 1480.234831 4224.269627 22303.346883 21648.105938 19159.461215 12637.113961 14506.772540 8998.986019 8507.894965 5210.610588 7159.728090 3704.230219 1266.847159 23674.258390 18715.993492 20196.950861 13585.164792 6185.595376 8537.854871 5065.467510 4488.194356 2768.767065 7337.745845 1311.515928 20353.152267 21199.421661 19432.164660 19174.170899 16387.929058 10681.620969 7150.305320 5075.278229 8511.683410 2505.622931 2566.296361 18602.816184 21147.303746 18316.480617 12381.082405 12375.370778 10260.668375 11844.375236 6814.111283 3543.658655 3830.175850 2631.793207 18254.969799 18295.897667 15323.625412 13278.566471 14315.188367 8278.071122 9023.550983 7652.574416 6623.661447 3392.408152 5969.644628 18922.744798 19800.025585 16656.231119 18806.193349 11779.486863 9911.917285 7031.883621 6389.602171 4781.487748 5474.839332 4291.820838 22603.002919 18261.366789 16954.243677 7941.664771 12589.698958 10140.199613 6397.163843 10870.448592 4489.187491 5704.091529 1530.317804 21768.193347 19462.087596 20984.468675 4887.124412 6859.139433 7037.209483 7249.082532 5554.117591 4001.153823 7440.467081 -2203.112021 22068.162223 17321.302602 13283.721033 16808.099703 7926.078334 12125.259452 10510.518496 2894.382987 4133.281140 8686.470973 1585.968482 22744.537251 21218.591600 18064.757464 16085.508613 11007.864189 9617.136319 5009.033210 13319.248035 5439.531289 3076.137905 1388.743583 19613.769470 20681.754222 20232.849049 13950.894459 9244.619387 14117.569701 13089.764136 3672.666910 7845.830573 4067.125867 2291.060949 20560.438815 18967.972677 19978.121464 14624.499316 13868.986679 10773.177888 13964.638426 7209.356919 8578.208029 4927.392130 1732.314142 18541.550988 16772.779407 19532.287503 14975.062139 10636.758115 12475.378955 7971.811097 10028.838861 7533.803657 5632.860294 2799.938563 22817.826212 21077.225772 15869.051687 15011.157389 17159.781588 11212.184751 10780.441884 7970.196063 4959.401844 3045.177658 3176.558205 19668.453435 18378.823113 17628.982195 17853.437315 15208.805007 11983.837602 8550.329420 7192.638040 8368.974820 5733.081693 3340.201965 19613.393986 18232.810236 16706.368305 18954.631337 15948.552783 13874.749620 7970.723057 6787.612120 3155.499625 4787.302264 1376.044877 20665.282430 20058.473899 18121.964809 18110.019460 10861.084212 6992.778105 6097.759341 7874.465037 1804.530821 3768.307332 5524.536733 18062.069161 18565.570413 18423.332643 18317.479982 10956.206545 9960.859265 6877.105248 4738.023259 4129.787157 1843.366413 2277.583983 21983.410268 19461.343750 18192.061194 13119.447526 10037.774075 8985.408016 10124.448807 6474.715108 3444.473030 3569.457275 7760.599385 19732.384641 18374.424076 14919.124036 7476.161530 15052.442527 10178.152879 9415.199001 6801.048376 7685.898665 2092.191115 2661.295827 18273.034469 16871.554461 16793.026786 14087.009456 11201.191044 11491.446153 11058.817887 15004.835226 5392.576392 2195.545019 818.104359 16848.604812 19066.901013 18267.064013 14635.575133 13719.392316 14433.556628 11241.986031 7175.070614 5611.199084 3384.483338 4076.841378 20126.803535 14865.858933 14043.481696 16279.953207 12598.883046 11733.782211 6340.719854 4746.793182 4871.188865 2907.171564 909.420053 21655.608312 17366.284719 17019.309374 13616.392519 15300.544255 10075.892653 4561.839615 5056.130226 5477.575671 2444.783682 2216.776412 16620.860001 20566.077933 18266.308968 14076.830225 12968.714093 12331.353224 13769.253095 4870.934506 3504.218427 1960.272257 2876.305157 18906.467420 18860.302359 17954.209150 13457.097271 15296.106754 12014.502959 7481.359545 7581.150325 1148.045249 2375.702244 3293.946163 18758.077081 16293.870589 17812.855940 17917.614662 11903.501615 15016.564942 9347.321615 7160.221143 4491.210613 5674.518678 7736.162042 22359.466863 15619.513281 17404.189620 16044.598769 10388.614154 11047.388063 10061.701675 5636.655511 5403.870218 3661.450280 3388.448123 21162.329818 17776.280060 17275.736601 16495.896412 8000.180913 12605.333515 10296.055359 7867.304635 2829.722029 2508.969033 553.717664 17993.828241 16752.403330 16359.680107 16838.284119 11045.105262 7176.497515 6296.389158 6547.516505 2189.127583 3500.462308 3400.856551 15591.272176 16863.832360 12989.964158 13517.800942 12113.580119 7635.649628 10441.190175 5694.608125 8295.468203 3649.629691 89.656638 17960.540366 17603.333008 17366.029154 14070.156897 15439.065014 7324.873924 7616.998347 5454.398666 4271.774053 6119.187061 5245.748215 16873.836675 15721.735502 16156.753000 15132.569345 9752.857651 11546.749568 6170.637249 8859.208419 5559.457952 7334.944897 1074.012813 17339.071773 13827.126651 17197.927906 17041.498307 13877.924744 12456.173578 9870.612135 5686.931478 7239.915465 7606.471873 5559.122108 18881.695001 17535.227464 17421.839808 15192.465487 9122.066993 10688.825676 11590.959552 4465.335335 7583.259096 3436.862804 534.128248 18324.734627 16649.440549 13519.601329 15407.938182 14773.486617 12798.644658 9663.035178 6427.589498 5188.011620 2290.462842 4120.715346 20282.264488 17421.836477 15713.352301 16818.251090 12725.458261 10297.072909 11096.285676 7561.534731 3658.283477 7821.045551 6965.382784 14098.522016 19428.077310 15610.245369 15573.698265 12547.827749 7617.710717 11423.290116 6660.427863 7889.986909 10348.411147 4998.036834 19252.411870 16118.327103 14124.368139 15351.451532 12024.166976 12597.950998 10696.488251 6695.780861 5383.281381 4024.113896 7756.643004 15085.148599 18046.134998 14380.753854 13655.738151 13518.580013 9957.378372 7320.743399 7263.940953 4334.443067 7505.497819 7840.631059 17168.449784 17426.045379 15599.924495 14081.150009 15183.301859 14438.378260 13922.880660 9505.230175 9309.893775 7068.902754 6810.490890 16519.003991 14287.444717 13403.820765 17637.437326 12576.610810 7785.718096 10335.286107 4152.404153 10298.948458 4816.944053 6433.412879 18223.532766 15270.361208 15765.187888 15161.738510 11459.679211 11726.929504 6658.036292 12313.458895 9525.069433 9201.852998 1607.172868 13786.929748 17632.592963 16512.479257 14564.803397 13406.986788 13358.602672 12294.819826 8101.229609 8722.706716 10747.632271 7346.379968 17954.586372 17095.521522 16117.902463 15298.521706 15162.588381 12380.707940 13419.185218 9039.645869 10106.734922 8020.189404 7216.292157 16326.328990 15402.952381 14390.901454 15405.549566 14476.357364 10827.844370 10475.823976 11623.628831 8003.683716 5448.328982 2837.651610 14063.637149 14707.998925 15167.272628 15840.748673 15152.308306 9294.973862 11099.365974 10566.369708 9563.957828 5985.602903 258.998305 17288.189237 16789.200779 13816.277149 15987.680455 13135.615589 11366.408850 10100.470188 10022.628525 5640.028436 3423.430760 7636.523529 17753.839563 16839.919071 13341.574475 16753.659611 11370.363041 12192.734686 12250.741841 8314.560313 6083.396934 8146.160267 7785.432410 17499.456173 18242.085997 14216.345969 15184.149006 11984.688480 13941.637458 9588.631609 7893.943918 10012.945143 6829.975674 2141.969066 19370.481593 16444.352593 16644.897792 15522.087112 15261.812076 13850.549937 12927.838512 12876.124909 8888.370174 7678.995267 5259.248290 18351.106153 19920.629034 15188.522224 15607.440022 13139.487492 14743.417960 12371.096162 11207.665585 6797.448288 -100.223087 4555.420967 19843.082831 17692.881514 16710.039651 16127.434188 12455.006784 11722.307264 10133.766603 13204.405798 9975.213425 9323.407062 11665.798366 18074.427871 16728.017414 12379.997287 17186.935459 9423.681548 13904.343476 7040.407305 11905.122333 7469.065734 5589.736915 10237.660726 17992.371069 16860.414648 19263.214504 19303.625799 17506.077805 10003.209923 12418.387459 14347.387775 10577.901912 6484.134436 7236.675880 21158.092566 19048.900664 16547.676637 15822.090088 16314.773667 14226.502391 7315.566062 13438.210208 9294.229365 9919.328815 4202.048787 19407.627496 16706.405028 15110.323638 12074.112438 14505.166983 14480.705499 11284.476184 10668.775806 3823.061457 5581.735028 8255.483900 16741.884805 20819.504876 20381.092669 15062.230747 14364.649046 11722.448087 10188.150591 9001.680940 7796.142004 9328.419985 4736.223639 18991.487405 21891.625516 17023.131803 13155.481061 12255.405051 15136.239563 12301.450495 9488.234720 4917.349155 5870.782404 4840.917824 20111.445114 19993.894477 18729.527466 16498.804295 16460.423476 7838.542206 8441.479847 10044.992355 6639.993305 5689.613418 9647.339814 18119.648595 11750.595418 16672.508131 18008.794206 16210.658752 11749.037981 17965.537091 8177.082650 9450.039866 5936.688475 5801.366660 15995.554778 19425.301194 20775.949488 17831.588558 11903.885832 17679.515954 11756.364110 9278.599038 10641.123629 8563.438144 4406.744079 18306.448243 18307.713070 15068.602569 15530.166192 17084.881379 12336.554890 19285.410406 18765.288389 7162.260764 5734.760231 5811.783323 16692.218283 21155.190674 21423.835409 17245.717188 14163.628275 18947.099884 16173.686884 18339.683902 18987.473702 15172.894861 12881.179415 11258.914739 5259.051461 164.733265 19302.260829 13543.868922 18824.072679 18433.531523 9279.051625 19709.329757 12443.887353 10892.069222 18293.168080 8331.018152 11348.114394 10031.678601 3668.088212 12142.131826 10642.996591 12077.159674 14268.619259 6172.457401 7437.784884 9168.759282 12237.761433 8429.351100 13785.069635 7533.661682 4702.442058 6998.341143 5695.933463 7237.293138 13959.240450 9915.937924 11004.916593 13883.213911 12837.808507 11127.181905 13740.001928 14110.609550 5665.679688 14662.405981 13167.845081 8968.725448 9365.350153 5996.512890 15465.130779 18969.435067 10766.225636 9731.538929 15393.194361 12063.061469 13386.380590 9910.227389 10152.457754 6962.766892 7808.980223 7750.353397 2823.122175 6450.419265 10954.338013 17863.147489 11346.143805 20146.680330 15060.187558 15898.049965 16891.663136 10831.626970 9124.832397 9217.174890 7491.808985 9001.698060 11507.503229 2566.119190 22516.095564 6021.725943 11483.529208 12362.131382 6543.120048 14989.335878 12597.700891 16049.334741 6989.623898 7769.920283 6654.003858 5852.596241 7357.517902 2395.044468 10025.908479 9578.948977 10766.587941 16024.323863 9743.300671 15668.864569 6631.712138 5791.257108 3542.702691 7442.815716 8873.904124 8107.074207 2508.912251 4474.448306 13483.977131 14911.106578 9194.638326 5115.584516 11270.499405 5869.420716 6275.049640 5773.408888 6124.785757 8191.925896 7810.929619 6035.142567 8171.431303 1111.855842 6616.842306 9641.565765 11895.582234 5916.628011 9611.920046 3616.378820 10823.238974 7404.693611 13497.336752 3834.424133 5349.570977 5929.405456 1504.812114 3885.108889 8131.793825 9891.456256 18438.552414 14120.312891 6382.903554 8070.124194 4879.738344 11606.349659 9477.384301 10073.906064 12228.327414 7917.818597 5511.576314 3754.852492 11875.115112 6990.569603 11041.301227 18845.585435 8045.100513 12403.309281 3454.522030 11759.637718 7513.957626 8393.197809 7213.211249 16536.776662 2017.960754 4452.137104 5713.966752 3085.018284 3347.821514 12278.545723 7965.511246 3981.532670 8525.792226 15091.775732 16979.485214 7462.453468 6878.456948 4627.327030 2390.237254 5306.282557 3978.796680 8118.517903 6121.496970 4629.741737 9225.720286 6981.132141 7162.972317 11428.758337 6606.942764 12575.005697 7165.603157 2903.842434 1728.067495 4265.598234 5186.390331 3967.787930 1488.635320 4425.527643 2570.857775 645.434456 6040.918959 1950.243318 3711.909301 3267.853742 4961.199675 6750.436101 3708.589989 4991.617448
</DataArray>
<DataArray type="Float64" Name="Velocity" NumberOfComponents="3" format="ascii">