<VTKFile type="PolyData">
<PolyData>
<Piece NumberOfPoints="1945" NumberOfVerts="1945" NumberOfLines="0" NumberOfStrips="0" NumberOfPolys="0">
<PointData>
<DataArray type="Float64" Name="Pressure" format="ascii">
 52.153471 191.625010 330.588752 1646.450467 906.605213 4379.190921 1134.707027 5403.998270 1176.136863 5517.493118 1191.768967 5571.965452 1196.660569 5591.214492 1198.107900 5597.236125 1198.517182 5599.143045 1198.627115 5599.683452 1198.656290 5599.830932 1198.663951 5599.871303 1198.665938 5599.882136 1198.666452 5599.885017 1198.666585 5599.885787 1198.666620 5599.885994 1198.666629 5599.886050 1198.666631 5599.886065 1198.666632 5599.886070 1198.666632 5599.886071 1198.666632 5599.886071 1198.666632 5599.886071 1198.666632 5599.886071 1198.666632 5599.886071 1198.666632 5599.886071 1198.666632 5599.886071 1198.666632 5599.886071 1198.666632 5599.886071 1198.666632 5599.886071 1198.666632 5599.886071 1198.666632 5599.886071 1198.666632 5599.886071 1198.666632 5599.886071 1198.666632 5599.886071 1198.666632 5599.886071 1198.666632 5599.886071 1198.666632 5599.886071 1198.666632 5599.886071 1198.666632 5599.886071 1198.666632 5599.886071 1198.666632 5599.886071 1198.666632 5599.886071 1198.666632 5599.886071 1198.666632 5599.886071 1198.666632 5599.886071 1198.666632 5599.886071 1198.666632 5599.886071 1198.666632 5599.886071 1198.666632 5599.886071 1198.666632 5599.886071 1198.666632 5599.886071 1198.666632 5599.886071 1198.666632 5599.886071 1198.666632 5599.886071 1198.666632 5599.886071 1198.666632 5599.886071 1198.666632 5599.886071 1198.666632 5599.886071 1198.666632 5599.886071 1198.666632 5599.886071 1198.666632 5599.886071 1198.666632 5599.886071 1198.666632 5599.886071 1198.666632 5599.886071 1198.666632 5599.886071 1198.666632 5599.886071 1198.666632 5599.886071 1198.666632 5599.886071 1198.666632 5599.886071 1198.666632 5599.886071 1198.666632 5599.886071 1198.666632 5599.886071 1198.666632 5599.886071 1198.666632 5599.886071 1198.666632 5599.886071 1198.666632 5599.886071 1198.666632 5599.886071 1198.666632 5599.886071 1198.666632 5599.886071 1198.666632 5599.886071 1198.666632 5599.886071 1198.666632 5599.886071 1198.666632 5599.886071 1198.666632 5599.886071 1198.666632 5599.886071 1198.666632 5599.886071 1198.666632 5599.886071 1198.666632 5599.886071 1198.666632 5599.886071 1198.666632 5599.886068 1198.666631 5599.886051 1198.666626 5599.885948 1198.666598 5599.885354 1198.666437 5599.882113 1198.665585 5599.865827 1198.661459 5599.788982 1198.642124 5599.439320 1198.554785 5598.014273 1198.208327 5592.933088 1197.058159 5575.440961 1193.091967 5528.920189 1162.953266 5416.325505 922.794730 4353.247962 344.296136 1614.246837 91.628415 210.082650 237.143260 106.559061 41.063214 13.038165 4.266876 1.547637 0.742428 0.533217 0.480832 0.468011 0.465067 0.464380 0.464206 0.464154 0.464127 0.464085 0.463894 0.462983 0.458645 0.439709 0.387640 0.417145 -1.060197 -25.140596 -145.510110 -161.000327 -50.247471 -12.093694 -2.393202 -0.478304 -0.095371 -0.019026 -0.003795 -0.000757 -0.000151 -0.000030 -0.000006 -0.000001 -0.000000 -0.000000 -0.000000 -0.000000 -0.000000 -0.000000 -0.000000 0.000000 0.000000 0.000000 0.000000 -0.000000 -0.000000 1791.491195 655.544784 324.508246 119.833231 43.198230 18.753415 10.416001 7.967604 7.317550 7.148751 7.107232 7.097460 7.095366 7.094840 7.094448 7.093616 7.089873 7.072251 6.992555 6.683573 5.736381 4.060194 6.455863 -122.724936 -1268.337108 -1280.813777 -165.106899 -16.840476 -4.505767 -1.121275 -0.268349 -0.062427 -0.014228 -0.003192 -0.000707 -0.000155 -0.000034 -0.000007 -0.000002 -0.000000 -0.000000 -0.000000 -0.000000 -0.000000 -0.000000 0.000000 0.000000 0.000000 0.000000 -0.000000 -0.000000 1778.747634 644.046494 316.948853 117.471524 43.211167 18.781044 9.450904 5.526404 8.912843 -115.993924 -1253.203345 -1257.799546 -146.216910 -7.922234 -1.598262 -0.317999 -0.063473 -0.012660 -0.002525 -0.000504 -0.000100 -0.000020 -0.000004 -0.000001 -0.000000 -0.000000 -0.000000 -0.000000 -0.000000 -0.000000 -0.000000 -0.000000 -0.000000 -0.000000 -0.000000 -0.000000 -0.000000 -0.000000 -0.000000 -0.000000 0.000000 0.000000 0.000000 0.000000 0.000000 0.000000 0.000000 0.000000 0.000000 -0.000000 -0.000000 244.659362 124.797051 55.769306 19.048471 6.371169 2.183153 0.798219 -0.100318 -3.530773 -15.247084 -101.056772 -108.620616 -27.883592 -9.414205 -2.617541 -0.671351 -0.163589 -0.038556 -0.008872 -0.002006 -0.000447 -0.000099 -0.000022 -0.000005 -0.000001 -0.000000 -0.000000 -0.000000 -0.000000 -0.000000 -0.000000 -0.000000 -0.000000 -0.000000 -0.000000 -0.000000 -0.000000 -0.000000 0.000000 0.000000 0.000000 0.000000 0.000000 0.000000 0.000000 0.000000 0.000000 0.000000 0.000000 -0.000000 -0.000000 0.000000 -0.000000 0.000000 0.000000 0.000000 0.000000 0.000000 0.000000 0.000000 0.000000 0.000000 0.000000 -0.000000 0.000000 0.000000 -0.000000 0.000000 -0.000000 0.000000 -0.000000 0.000000 -0.000000 0.000000 -0.000000 0.000000 0.000000 0.000000 0.000000 -0.000000 -0.000000 0.000000 0.000000 0.000000 0.000000 0.000000 0.000000 0.000000 0.000000 0.000000 0.000000 0.000000 0.000000 0.000000 -0.000000 -0.000000 -0.000000 0.000000 -0.000000 0.000000 0.000000 0.000000 0.000000 0.000000 0.000000 0.000000 0.000000 0.000000 0.000000 0.000000 0.000000 0.000000 0.000000 0.000000 0.000000 0.000000 0.000000 0.000000 0.000000 0.000000 0.000000 0.000000 0.000000 0.000000 0.000000 0.000000 0.000000 0.000000 0.000000 0.000000 0.000000 0.000000 0.000000 0.000000 0.000000 0.000000 0.000000 0.000000 0.000000 0.000000 0.000000 0.000000 0.000000 0.000000 0.000000 0.000000 0.000000 0.000000 0.000000 0.000000 0.000000 0.000000 0.000000 0.000000 0.000000 0.000000 0.000000 0.000000 0.000000 0.000000 0.000000 0.000000 0.000000 0.000000 0.000000 0.000000 0.000000 0.000000 0.000000 0.000000 0.000000 0.000000 0.000000 0.000000 0.000000 0.000000 0.000000 0.000000 0.000000 0.000000 0.000000 0.000000 0.000000 0.000000 0.000000 0.000000 0.000000 0.000000 0.000000 0.000000 0.000000 0.000000 0.000000 0.000000 0.000000 0.000000 0.000000 0.000000 0.000000 0.000000 0.000000 0.000000 0.000000 0.000000 0.000000 0.000000 0.000000 0.000000 0.000000 0.000000 0.000000 0.000000 0.000000 0.000000 0.000000 0.000000 0.000000 0.000000 0.000000 0.000000 0.000000 0.000000 0.000000 0.000000 0.000000 0.000000 0.000000 0.000000 0.000000 0.000000 0.000000 0.000000 0.000000 0.000000 0.000000 0.000000 0.000000 0.000000 0.000000 0.000000 0.000000 0.000000 0.000000 0.000000 0.000000 0.000000 0.000000 0.000000 0.000000 0.000000 0.000000 0.000000 0.000000 0.000000 0.000000 0.000000 0.000000 0.000000 0.000000 0.000000 0.000000 4318.734463 1205.589324 698.666045 288.589686 97.644389 37.920135 16.321908 9.518037 7.672846 7.182131 7.056823 4977.000440 1187.700230 852.312656 355.400476 115.518766 41.753056 13.414903 4.185522 1.649772 0.960009 0.786891 5149.504986 1367.693568 982.799261 400.241393 132.859257 48.824334 15.552851 4.661883 1.634653 0.798114 0.575736 5284.169605 1477.438784 1036.680267 422.210286 143.424984 52.859986 16.633930 4.766571 1.424625 0.488655 0.240103 5327.091052 1509.471624 1055.809056 433.309623 148.924894 54.909993 17.272323 4.906160 1.385670 0.390464 0.124982 5340.148355 1520.961654 1064.333820 438.367442 151.283586 55.850170 17.622906 5.017202 1.404743 0.377995 0.102663 5344.523761 1525.125269 1067.416490 440.156511 152.165628 56.248320 17.785959 5.073747 1.418937 0.376965 0.096493 5345.800161 1526.361716 1068.357037 440.746283 152.490326 56.407487 17.854583 5.099651 1.427094 0.378254 0.095273 5346.151057 1526.714758 1068.644551 440.941262 152.604359 56.465931 17.881319 5.110746 1.431180 0.379403 0.095274 5346.248377 1526.816396 1068.731051 441.002376 152.641660 56.486161 17.891276 5.115228 1.433000 0.380029 0.095403 5346.274768 1526.844659 1068.755912 441.020702 152.653483 56.493004 17.894874 5.116956 1.433756 0.380322 0.095491 5346.281820 1526.852387 1068.762965 441.026153 152.657195 56.495274 17.896135 5.117596 1.434050 0.380440 0.095525 5346.283715 1526.854511 1068.764971 441.027768 152.658345 56.496012 17.896564 5.117818 1.434142 0.380421 0.095402 5346.284227 1526.855096 1068.765540 441.028243 152.658698 56.496247 17.896702 5.117871 1.434039 0.379996 0.094700 5346.284365 1526.855257 1068.765702 441.028382 152.658805 56.496320 17.896738 5.117831 1.433644 0.377765 0.092138 5346.284403 1526.855302 1068.765748 441.028423 152.658837 56.496341 17.896739 5.117739 1.433049 0.372316 0.085513 5346.284413 1526.855314 1068.765761 441.028435 152.658847 56.496347 17.896733 5.117678 1.432639 0.369992 0.081908 5346.284416 1526.855317 1068.765764 441.028438 152.658850 56.496349 17.896730 5.117657 1.432498 0.369537 0.081359 5346.284417 1526.855318 1068.765766 441.028439 152.658851 56.496349 17.896729 5.117652 1.432483 0.369460 0.081261 5346.284417 1526.855319 1068.765766 441.028440 152.658851 56.496350 17.896730 5.117652 1.432483 0.369455 0.081257 5346.284417 1526.855319 1068.765766 441.028440 152.658851 56.496350 17.896730 5.117653 1.432484 0.369456 0.081259 5346.284417 1526.855319 1068.765766 441.028440 152.658852 56.496350 17.896730 5.117653 1.432485 0.369457 0.081260 5346.284417 1526.855319 1068.765766 441.028440 152.658852 56.496350 17.896730 5.117653 1.432485 0.369457 0.081260 5346.284417 1526.855319 1068.765766 441.028440 152.658852 56.496350 17.896730 5.117653 1.432485 0.369457 0.081260 5346.284417 1526.855319 1068.765766 441.028440 152.658852 56.496350 17.896730 5.117653 1.432485 0.369457 0.081260 5346.284417 1526.855319 1068.765766 441.028440 152.658852 56.496350 17.896730 5.117653 1.432485 0.369457 0.081260 5346.284417 1526.855319 1068.765766 441.028440 152.658852 56.496350 17.896730 5.117653 1.432485 0.369457 0.081260 5346.284417 1526.855319 1068.765766 441.028440 152.658852 56.496350 17.896730 5.117653 1.432485 0.369457 0.081260 5346.284417 1526.855319 1068.765766 441.028440 152.658852 56.496350 17.896730 5.117653 1.432485 0.369457 0.081260 5346.284417 1526.855319 1068.765766 441.028440 152.658852 56.496350 17.896730 5.117653 1.432485 0.369457 0.081260 5346.284417 1526.855319 1068.765766 441.028440 152.658852 56.496350 17.896730 5.117653 1.432485 0.369457 0.081260 5346.284417 1526.855319 1068.765766 441.028440 152.658852 56.496350 17.896730 5.117653 1.432485 0.369457 0.081260 5346.284417 1526.855319 1068.765766 441.028440 152.658852 56.496350 17.896730 5.117653 1.432485 0.369457 0.081260 5346.284417 1526.855319 1068.765766 441.028440 152.658852 56.496350 17.896730 5.117653 1.432485 0.369457 0.081260 5346.284417 1526.855319 1068.765766 441.028440 152.658852 56.496350 17.896730 5.117653 1.432485 0.369457 0.081260 5346.284417 1526.855319 1068.765766 441.028440 152.658852 56.496350 17.896730 5.117653 1.432485 0.369457 0.081260 5346.284417 1526.855319 1068.765766 441.028440 152.658852 56.496350 17.896730 5.117653 1.432485 0.369457 0.081260 5346.284417 1526.855319 1068.765766 441.028440 152.658852 56.496350 17.896730 5.117653 1.432485 0.369457 0.081260 5346.284417 1526.855319 1068.765766 441.028440 152.658852 56.496350 17.896730 5.117653 1.432485 0.369457 0.081260 5346.284417 1526.855319 1068.765766 441.028440 152.658852 56.496350 17.896730 5.117653 1.432485 0.369457 0.081260 5346.284417 1526.855319 1068.765766 441.028440 152.658852 56.496350 17.896730 5.117653 1.432485 0.369457 0.081260 5346.284417 1526.855319 1068.765766 441.028440 152.658852 56.496350 17.896730 5.117653 1.432485 0.369457 0.081260 5346.284417 1526.855319 1068.765766 441.028440 152.658852 56.496350 17.896730 5.117653 1.432485 0.369457 0.081260 5346.284417 1526.855319 1068.765766 441.028440 152.658852 56.496350 17.896730 5.117653 1.432485 0.369457 0.081260 5346.284417 1526.855319 1068.765766 441.028440 152.658852 56.496350 17.896730 5.117653 1.432485 0.369457 0.081260 5346.284417 1526.855319 1068.765766 441.028440 152.658852 56.496350 17.896730 5.117653 1.432485 0.369457 0.081260 5346.284417 1526.855319 1068.765766 441.028440 152.658852 56.496350 17.896730 5.117653 1.432485 0.369457 0.081260 5346.284417 1526.855319 1068.765766 441.028440 152.658852 56.496350 17.896730 5.117653 1.432485 0.369457 0.081260 5346.284417 1526.855319 1068.765766 441.028440 152.658852 56.496350 17.896730 5.117653 1.432485 0.369457 0.081260 5346.284417 1526.855319 1068.765766 441.028440 152.658852 56.496350 17.896730 5.117653 1.432485 0.369457 0.081260 5346.284417 1526.855319 1068.765766 441.028440 152.658852 56.496350 17.896730 5.117653 1.432485 0.369457 0.081260 5346.284417 1526.855319 1068.765766 441.028440 152.658852 56.496350 17.896730 5.117653 1.432485 0.369457 0.081260 5346.284417 1526.855319 1068.765766 441.028440 152.658852 56.496350 17.896730 5.117653 1.432485 0.369457 0.081260 5346.284417 1526.855319 1068.765766 441.028440 152.658852 56.496350 17.896730 5.117653 1.432485 0.369457 0.081260 5346.284417 1526.855319 1068.765766 441.028440 152.658852 56.496350 17.896730 5.117653 1.432485 0.369457 0.081260 5346.284417 1526.855319 1068.765766 441.028440 152.658852 56.496350 17.896730 5.117653 1.432485 0.369457 0.081260 5346.284417 1526.855319 1068.765766 441.028440 152.658852 56.496350 17.896730 5.117653 1.432485 0.369457 0.081260 5346.284417 1526.855319 1068.765766 441.028440 152.658852 56.496350 17.896730 5.117653 1.432485 0.369457 0.081260 5346.284417 1526.855319 1068.765766 441.028440 152.658852 56.496350 17.896730 5.117653 1.432485 0.369457 0.081260 5346.284417 1526.855319 1068.765766 441.028440 152.658852 56.496350 17.896730 5.117653 1.432485 0.369457 0.081260 5346.284417 1526.855319 1068.765766 441.028440 152.658852 56.496350 17.896730 5.117653 1.432485 0.369457 0.081260 5346.284417 1526.855319 1068.765766 441.028440 152.658852 56.496350 17.896730 5.117653 1.432485 0.369457 0.081260 5346.284417 1526.855319 1068.765766 441.028440 152.658852 56.496350 17.896730 5.117653 1.432485 0.369457 0.081260 5346.284417 1526.855319 1068.765766 441.028440 152.658852 56.496350 17.896730 5.117653 1.432485 0.369457 0.081260 5346.284417 1526.855319 1068.765766 441.028440 152.658852 56.496350 17.896730 5.117653 1.432485 0.369457 0.081260 5346.284417 1526.855319 1068.765766 441.028440 152.658852 56.496350 17.896730 5.117653 1.432485 0.369457 0.081260 5346.284417 1526.855319 1068.765766 441.028440 152.658852 56.496350 17.896730 5.117653 1.432485 0.369457 0.081260 5346.284417 1526.855319 1068.765766 441.028440 152.658852 56.496350 17.896730 5.117653 1.432485 0.369457 0.081260 5346.284417 1526.855319 1068.765766 441.028440 152.658852 56.496350 17.896730 5.117653 1.432485 0.369457 0.081260 5346.284417 1526.855319 1068.765766 441.028440 152.658852 56.496350 17.896730 5.117653 1.432485 0.369457 0.081260 5346.284417 1526.855319 1068.765766 441.028440 152.658852 56.496350 17.896730 5.117653 1.432485 0.369457 0.081260 5346.284417 1526.855319 1068.765766 441.028440 152.658852 56.496350 17.896730 5.117653 1.432485 0.369457 0.081260 5346.284417 1526.855319 1068.765766 441.028440 152.658852 56.496350 17.896730 5.117653 1.432485 0.369457 0.081260 5346.284417 1526.855319 1068.765766 441.028440 152.658852 56.496350 17.896730 5.117653 1.432485 0.369457 0.081260 5346.284417 1526.855319 1068.765766 441.028440 152.658852 56.496350 17.896730 5.117653 1.432485 0.369457 0.081260 5346.284417 1526.855319 1068.765766 441.028440 152.658852 56.496350 17.896730 5.117653 1.432485 0.369457 0.081260 5346.284417 1526.855319 1068.765766 441.028440 152.658852 56.496350 17.896730 5.117653 1.432485 0.369457 0.081260 5346.284417 1526.855319 1068.765766 441.028440 152.658852 56.496350 17.896730 5.117653 1.432485 0.369457 0.081260 5346.284417 1526.855319 1068.765766 441.028440 152.658852 56.496350 17.896730 5.117653 1.432485 0.369457 0.081260 5346.284417 1526.855319 1068.765766 441.028440 152.658852 56.496350 17.896730 5.117653 1.432485 0.369457 0.081260 5346.284417 1526.855319 1068.765766 441.028440 152.658852 56.496350 17.896730 5.117653 1.432485 0.369457 0.081260 5346.284417 1526.855319 1068.765766 441.028440 152.658852 56.496350 17.896730 5.117653 1.432485 0.369457 0.081260 5346.284417 1526.855319 1068.765766 441.028440 152.658852 56.496350 17.896730 5.117653 1.432485 0.369457 0.081260 5346.284417 1526.855319 1068.765766 441.028440 152.658852 56.496350 17.896730 5.117653 1.432485 0.369457 0.081260 5346.284417 1526.855319 1068.765766 441.028440 152.658852 56.496350 17.896730 5.117653 1.432485 0.369457 0.081260 5346.284417 1526.855318 1068.765766 441.028440 152.658851 56.496350 17.896730 5.117653 1.432485 0.369457 0.081260 5346.284416 1526.855317 1068.765764 441.028439 152.658851 56.496350 17.896730 5.117653 1.432485 0.369457 0.081260 5346.284408 1526.855308 1068.765756 441.028432 152.658847 56.496347 17.896729 5.117652 1.432484 0.369457 0.081260 5346.284360 1526.855251 1068.765704 441.028394 152.658823 56.496334 17.896721 5.117647 1.432479 0.369453 0.081257 5346.284074 1526.854921 1068.765410 441.028183 152.658693 56.496262 17.896680 5.117618 1.432453 0.369428 0.081239 5346.282450 1526.853090 1068.763826 441.027080 152.658037 56.495908 17.896482 5.117473 1.432313 0.369297 0.081140 5346.273744 1526.843495 1068.755714 441.021619 152.654929 56.494304 17.895594 5.116785 1.431590 0.368571 0.080569 5346.231107 1526.797903 1068.717986 440.996749 152.641179 56.487482 17.891842 5.113618 1.427968 0.364832 0.077560 5346.033877 1526.596156 1068.558641 440.895756 152.586679 56.460908 17.877143 5.100664 1.412847 0.349176 0.064294 5345.151608 1525.726379 1067.909562 440.515430 152.394329 56.369814 17.827482 5.056583 1.356752 0.284007 0.003836 5341.701489 1522.425943 1065.463011 439.144506 151.761106 56.094303 17.680002 4.902463 1.109395 -0.035721 -0.297868 5329.839816 1512.242390 1058.097249 434.906622 149.844358 55.332843 17.255504 4.340680 0.195451 -1.051545 -1.269111 5286.039976 1479.532082 1039.311250 424.844839 145.084948 53.497932 16.258284 3.106916 -1.403373 -2.719072 -3.967632 5152.416810 1369.720201 983.568702 402.656307 135.196410 49.654654 14.658239 1.655239 -5.534407 -15.121222 -22.890146 4975.845643 1192.394284 851.366329 354.580214 116.866574 42.267461 11.641911 -4.273436 -28.803822 -60.791897 -66.239581 4276.270223 1203.518121 709.387413 293.232572 100.953050 39.130853 14.125426 -1.947602 -20.244540 -8.397563 24.704115 7.031611 7.022684 7.021306 7.020340 7.018147 7.008532 6.964445 6.771295 6.049220 3.494834 -5.867725 -22.422374 -8.644498 22.802329 0.739986 0.730087 0.728185 0.727013 0.724486 0.713818 0.667652 0.474091 -0.203844 -2.163643 -9.200479 -31.940832 -64.239083 -72.485437 0.525824 0.513016 0.510147 0.508952 0.506805 0.498139 0.463371 0.328269 -0.144460 -1.338467 -3.477469 -7.581932 -15.294471 -24.057668 0.180400 0.165277 0.161860 0.160771 0.159280 0.153666 0.132560 0.060496 -0.176501 -0.847772 -2.173548 -3.599973 -3.842921 -5.063523 0.059634 0.043488 0.039842 0.038815 0.037888 0.034891 0.024046 -0.009522 -0.100609 -0.331616 -0.833827 -1.539094 -1.800516 -1.821813 0.034166 0.017310 0.013413 0.012394 0.011821 0.010434 0.005711 -0.008662 -0.044460 -0.118114 -0.250580 -0.434527 -0.526412 -0.529077 0.026243 0.008877 0.004802 0.003776 0.003384 0.002781 0.000989 -0.004218 -0.017139 -0.042666 -0.081974 -0.125494 -0.138198 -0.134581 0.024124 0.006461 0.002282 0.001245 0.000935 0.000664 0.000014 -0.001693 -0.005706 -0.013567 -0.025598 -0.038123 -0.040518 -0.037569 0.023691 0.005873 0.001639 0.000591 0.000313 0.000176 -0.000058 -0.000611 -0.001806 -0.004005 -0.007277 -0.010662 -0.011259 -0.010262 0.023623 0.005730 0.001467 0.000412 0.000145 0.000057 -0.000030 -0.000206 -0.000564 -0.001185 -0.002056 -0.002914 -0.003012 -0.002725 0.023625 0.005697 0.001421 0.000363 0.000100 0.000029 -0.000009 -0.000065 -0.000171 -0.000347 -0.000587 -0.000812 -0.000824 -0.000739 0.023627 0.005688 0.001408 0.000349 0.000087 0.000022 -0.000000 -0.000020 -0.000051 -0.000100 -0.000166 -0.000227 -0.000228 -0.000203 0.023479 0.005601 0.001379 0.000339 0.000082 0.000020 0.000003 -0.000005 -0.000015 -0.000029 -0.000047 -0.000063 -0.000063 -0.000056 0.023051 0.005250 0.001212 0.000288 0.000068 0.000017 0.000003 -0.000001 -0.000004 -0.000008 -0.000013 -0.000017 -0.000017 -0.000015 0.023281 0.004782 0.001000 0.000229 0.000054 0.000013 0.000003 0.000000 -0.000001 -0.000002 -0.000003 -0.000004 -0.000004 -0.000004
</DataArray>
<DataArray type="Float64" Name="Velocity" NumberOfComponents="3" format="ascii">