<VTKFile type="PolyData">
<PolyData>
<Piece NumberOfPoints="1945" NumberOfVerts="1945" NumberOfLines="0" NumberOfStrips="0" NumberOfPolys="0">
<PointData>
<DataArray type="Float64" Name="Pressure" format="ascii">
 24045.088125 26572.898464 25340.491548 29100.900480 22146.512235 25190.456845 24343.248202 26406.931383 26199.984114 26355.533461 26900.133021 25872.940682 26987.122959 24881.635098 26410.561925 23795.193817 24782.477569 23152.841121 24323.696495 23379.768776 21674.863584 20997.163388 20699.867217 19699.792554 20596.364892 20007.486674 19482.392375 19103.197038 18223.847389 18297.202118 17895.567738 17970.085226 18585.232802 18955.256794 17639.814345 17663.355181 17922.554111 17960.584083 16776.905328 17428.261242 14870.534093 14933.975393 15492.142324 15767.775266 15587.172508 15818.293070 14472.776050 13786.939510 15699.049456 14729.862530 16888.498427 16022.945383 16188.930844 14579.602352 15806.531031 14550.084821 15217.026638 14258.825528 15688.866552 15152.512239 15372.552275 14637.880104 15136.548491 14362.468911 15778.910230 14679.451347 16574.736090 16087.690807 15253.068590 14427.774334 15624.495724 15086.413780 15737.622620 14861.756648 16413.036740 16036.258361 16534.099492 15564.912611 16519.012486 15566.765238 15986.221488 15315.021856 15696.109300 14883.250118 16953.081847 16053.490206 16625.389399 15750.846987 15509.816709 14824.616403 16048.831740 15494.006857 16214.643464 15500.756392 16206.183023 15294.748078 16342.787233 15476.803291 15682.577617 15051.475730 15916.757021 15572.283313 15963.881016 16564.609968 14962.940559 15819.345353 15497.292050 16287.771394 15726.288649 16795.420838 15288.689924 16457.250682 16174.787255 17625.180018 17504.584788 18745.474040 17491.829008 18493.319743 16399.866023 17449.192154 17488.738520 18987.662124 18813.847314 19933.865804 19158.647534 20341.230305 19178.687675 20584.451177 18880.140262 20157.950354 20078.193968 21483.535730 20715.238637 22331.060618 21256.750931 22555.593971 22243.918987 23136.928554 22291.395831 23102.640063 22148.278652 23117.419157 23449.151589 23590.684250 25149.673411 24899.968941 24697.923642 24298.137987 24176.157942 23018.734282 25571.492252 24532.911196 26131.911780 24480.638133 25989.226603 24491.037611 25536.201419 23887.437740 25821.167366 23864.628717 26896.242281 24696.338926 27817.548364 26812.068816 26407.643783 26041.969822 26707.219365 26897.444586 27918.585267 27978.882634 29250.200610 29196.717565 28842.189533 29197.629057 28492.667664 29394.960267 31753.786277 32015.546917 34602.482281 34053.360969 34731.604697 34294.366604 34520.239916 36742.955712 33383.147315 35824.314965 36541.019843 37315.726398 37925.915205 38014.179247 38841.305276 38980.367896 37998.796331 38031.503125 35383.686985 35300.885754 36103.435166 35856.843618 35187.959588 35421.882575 33573.565422 35975.547279 32805.469240 35589.654698 32362.007679 34026.550782 35061.481825 36642.220863 36345.516485 37211.745076 26147.310879 22659.958264 18870.856566 17740.148319 16224.422042 14029.588726 12236.680104 9868.844152 6536.074472 3318.634037 938.602150 499.838167 2407.317033 650.694452 -2092.227212 -695.314469 -490.838699 -2944.606554 -4507.009639 -5080.246198 -5828.953485 -6343.552581 -6576.951148 -6597.186174 -6470.615262 -6244.410767 -5951.139159 -5613.916450 -5249.664341 -4871.015828 -4487.516911 -4106.459830 -3733.479251 -3372.966385 -3028.341079 -2702.222038 -2396.532693 -2112.572735 -1851.076000 -1612.266669 -1395.919146 -1201.422583 -1027.848531 -874.019113 -738.572987 -620.026809 -516.831262 -427.425725 -350.323524 -284.420949 -230.861360 29988.727744 24708.633948 19804.061113 19324.386696 16934.310576 13730.127529 12468.519641 9656.149958 6150.705470 2431.085807 170.193952 84.272096 4411.328924 1778.443709 -993.666693 3144.673023 1945.882196 -2533.874111 -4573.099776 -5066.076908 -5761.006061 -6285.847004 -6531.972288 -6565.196856 -6448.707896 -6229.743799 -5941.652900 -5608.201308 -5246.736015 -4870.166154 -4488.228510 -4108.352163 -3736.268772 -3376.435583 -3032.315633 -2706.555572 -2401.097830 -2117.256704 -1855.779052 -1616.901928 -1400.412939 -1205.714680 -1031.892016 -877.779811 -742.028420 -623.164462 -519.644253 -429.893584 -352.301119 -284.964604 -224.000261 37879.898567 34582.909582 31168.728132 29207.708773 27047.644844 26219.903582 24125.104021 25451.374828 23752.562397 21160.177170 19375.851088 19628.386514 20588.317172 20103.799899 19126.905895 17961.091264 15634.385673 12828.934406 9768.860671 7223.945109 5160.904638 3733.518092 3155.517805 3058.017909 5004.199964 9246.623931 7658.317534 5348.686336 2968.797329 1958.012532 -610.849153 -1004.524773 3832.677662 5204.317369 1989.894738 1078.683666 602.808007 332.793708 180.988558 97.737916 53.149348 29.605890 17.163652 10.456232 6.695256 4.469488 3.072312 2.146619 1.505639 1.044360 0.690776 36409.753915 33388.323254 29475.663991 27077.925442 25569.065585 24333.427542 23025.754439 22510.405699 21199.976474 19615.829361 18239.790728 17791.195604 17728.440692 16924.638577 15771.433373 14212.724530 12375.137190 10411.593173 8198.690292 6307.102589 4839.666530 3966.502884 3767.376725 4305.794992 5313.167641 5875.405873 5092.337709 3822.750113 2533.802750 1233.805796 496.134100 1027.082805 2202.670976 2495.888786 1837.483705 1112.445203 640.869454 358.629415 196.806250 106.926159 58.270232 32.362442 18.609839 11.205199 7.084606 4.676704 3.187427 2.214330 1.548486 1.077367 0.745242 -194.663857 -178.316678 -183.812301 -168.761760 -155.608660 -147.699900 -123.237764 -122.439664 -98.960328 -99.189409 -79.377908 -79.721402 -63.433385 -63.745099 -50.475757 -50.739018 -39.990613 -40.209007 -31.546062 -31.725806 -24.777227 -24.924289 -19.377150 -19.496821 -15.089175 -15.186045 -11.700045 -11.778053 -9.033656 -9.096155 -6.945452 -6.995274 -5.317472 -5.356990 -4.054001 -4.085193 -3.077817 -3.102317 -2.326955 -2.346105 -1.751965 -1.766863 -1.313594 -1.325128 -0.980847 -0.989735 -0.729376 -0.736193 -0.540155 -0.545359 -0.398390 -0.402344 -0.292636 -0.295627 -0.214083 -0.216335 -0.155984 -0.157672 -0.113195 -0.114455 -0.081815 -0.082751 -0.058898 -0.059590 -0.042232 -0.042741 -0.030162 -0.030535 -0.021457 -0.021729 -0.015204 -0.015402 -0.010732 -0.010875 -0.007546 -0.007649 -0.005285 -0.005359 -0.003687 -0.003740 -0.002563 -0.002600 -0.001774 -0.001801 -0.001224 -0.001243 -0.000841 -0.000854 -0.000576 -0.000585 -0.000393 -0.000399 -0.000267 -0.000271 -0.000181 -0.000184 -0.000122 -0.000124 -0.000082 -0.000083 -0.000055 -0.000056 -0.000037 -0.000037 -0.000024 -0.000025 -0.000016 -0.000016 -0.000011 -0.000011 -0.000007 -0.000007 -0.000005 -0.000005 -0.000003 -0.000003 -0.000002 -0.000002 -0.000001 -0.000001 -0.000001 -0.000001 -0.000001 -0.000001 -0.000000 -0.000000 -0.000000 -0.000000 -0.000000 -0.000000 -0.000000 -0.000000 -0.000000 -0.000000 -0.000000 -0.000000 -0.000000 -0.000000 -0.000001 -0.000001 -0.000001 -0.000001 -0.000001 -0.000001 -0.000002 -0.000002 -0.000003 -0.000003 -0.000005 -0.000005 -0.000008 -0.000008 -0.000013 -0.000013 -0.000019 -0.000019 -0.000028 -0.000028 -0.000041 -0.000041 -0.000059 -0.000059 -0.000083 -0.000084 -0.000114 -0.000115 -0.000154 -0.000155 -0.000202 -0.000203 -0.000254 -0.000254 -0.000302 -0.000301 -0.000329 -0.000326 -0.000304 -0.000296 -0.000170 -0.000154 0.000167 0.000195 0.000858 0.000906 0.002144 0.002224 0.004399 0.004527 0.008188 0.008388 0.014356 0.014663 0.024147 0.024609 0.039366 0.040050 0.062610 0.063595 0.097601 0.098911 0.149815 0.150932 0.228314 0.225186 0.356621 0.319421 0.485437 0.409365 0.544664 0.460572 25817.104126 26697.236786 19690.393340 25986.410314 23710.418795 12824.403704 23433.680441 21087.927134 23001.447616 16596.489374 17481.055814 23830.091166 22432.669749 19095.093092 23854.437787 17548.238587 10753.613913 14378.415336 14035.450456 19224.493641 20169.152450 14983.728067 22256.287709 20895.285198 24865.115263 23276.688418 18789.493305 22434.096124 7394.030191 17818.575035 15590.122508 5699.241562 22755.436868 19424.605636 18107.875758 21772.110613 14376.813364 18569.554661 19974.682281 17756.255069 7887.326916 19105.764618 10957.610236 17657.279423 15031.265647 10274.699669 18866.815684 19168.249279 17952.126026 16263.139042 14275.783772 17321.559390 10504.357020 15714.321101 16134.261180 14182.266990 16534.823074 17611.778537 19365.253151 16998.917572 12417.619792 17839.120821 15385.025131 11239.096271 5464.043208 17000.060526 13077.790653 16023.912693 18216.266463 15624.825958 15486.840760 11777.599734 12092.941401 13218.625200 10893.881022 13605.494802 4974.323680 14791.851357 15511.474567 14421.197731 14863.664093 17894.857762 10520.307531 9515.991209 12572.853480 12883.320040 9242.968996 7088.189753 17211.168363 15704.652740 13035.634811 15727.835238 14022.055194 11104.596187 11523.103744 12035.181721 12047.820301 9183.444596 11927.129791 14495.806595 12777.715331 12291.230620 15007.295296 7749.688044 14746.855252 10397.637122 11171.731719 11373.792702 4698.222055 10135.591859 14506.940306 13471.252868 15185.222367 6675.766569 12674.958089 9089.674949 12248.294555 5748.201231 5998.125472 5299.084773 4595.041504 13774.663836 14289.633303 11014.040677 13920.950785 7375.016085 11107.374987 6739.180944 8410.465678 11262.798025 8078.279378 9051.892589 14403.257999 13361.615037 13261.623142 10929.890653 10089.507196 10358.858197 10994.078840 8523.701961 12186.502217 10561.529665 8758.994874 14094.200054 13190.944249 13087.829997 13108.835954 12422.763601 11582.024883 11264.592644 8839.931114 10381.567512 5060.774064 3311.548254 14451.483580 15314.282001 16052.039423 13774.348459 12426.361258 12589.690530 8973.233370 8669.595078 3323.769103 6295.186027 2786.001398 15103.758027 13692.900974 13863.966742 11113.645414 5839.263958 6352.144414 6854.584784 4927.086626 1714.900533 1141.288313 474.733435 14641.099488 14002.906561 12604.539329 14613.058744 11731.555674 10876.913325 8567.454221 10524.119498 2848.705138 1322.871774 1331.079154 15726.218553 12054.660630 12078.045553 8979.379959 7089.245983 4261.953874 3110.612938 1704.250422 1228.147345 1217.137737 1692.993524 14256.933168 11354.450011 12351.585176 10639.971904 8685.207758 5230.122014 6147.902097 3771.139741 4877.525725 3017.144963 1835.615893 15392.001538 14055.074590 14020.372734 9923.701980 6244.437036 5970.853772 4388.057057 4669.154028 1527.927997 2189.708681 2842.371762 14663.381666 13578.113510 14243.964514 11548.323794 7250.349884 2575.474514 4331.044776 1511.898626 1987.021951 1673.365518 1177.019944 14063.841262 12393.895838 11583.382788 9721.320246 8652.330187 1614.201256 3173.633533 2274.406616 3418.504950 2568.455829 1848.926492 15522.121586 13105.160054 11320.080479 8310.667187 7246.173015 8064.514374 1798.480999 3006.087903 1626.649335 3055.069450 874.100058 13253.815452 11935.388251 9691.711943 8973.020873 4405.873061 6241.603577 8202.249346 6097.058397 4402.993233 3396.541928 1236.573321 13745.865702 11918.011775 9546.752602 8410.229587 6952.074601 8409.080904 5963.150941 2544.023635 6707.669196 2511.652340 3623.193633 14738.696857 13082.169134 12540.120573 11714.885364 10926.035789 7127.319535 6540.528403 3442.987080 5704.802542 4844.330156 1554.195857 13913.944140 12156.635158 11726.144470 9539.439058 9880.082336 3965.985069 8547.521549 3305.932460 2650.520628 1509.329087 736.933598 13651.794795 11302.037646 8297.866431 9924.463791 9766.967050 10343.318040 5527.260277 8487.479230 2011.975141 1474.983674 3864.136262 14139.872147 13750.301346 10864.715586 10027.657528 11180.920830 7750.379538 5162.506506 5541.602898 5251.683261 4765.267148 864.138887 15245.936406 12566.150441 12724.545408 6969.124162 9266.866546 6810.313665 7661.635315 3801.867277 6687.923617 4359.977108 2705.236398 14020.973721 12596.336412 14290.738850 10881.778242 9700.543794 5386.819356 7135.431793 4902.226530 5400.920263 2503.872334 1457.601666 14995.715257 14698.189011 10952.932985 10998.602470 10779.962567 9166.262921 8558.356866 6481.003692 5382.284505 4794.029661 1934.781706 13060.386478 8235.183697 14810.671172 11320.572965 9774.461660 9923.177513 6106.563856 7336.040843 2722.861943 3117.012453 2146.372152 14910.432461 14147.289081 12675.078683 11685.149754 11733.869730 8797.355061 8683.736804 5853.911184 3191.559450 2970.712807 2861.932031 14562.368298 13301.166468 14474.129507 12360.266682 10943.750000 10539.517996 7084.777489 4297.788549 2623.195572 3396.632932 3129.879599 16311.059285 15805.832892 14247.345482 12404.979229 13627.392554 9081.126529 8093.883498 10334.257604 3820.115223 2603.978789 3065.199155 15567.030361 14809.589709 11928.112790 11785.662025 11202.942235 10229.777055 9332.916380 7466.548767 5092.191569 4290.156225 -3030.041102 15370.306055 14631.506006 15221.119706 14457.462862 11932.171000 8877.354220 10482.982719 7648.479822 7555.628519 2076.043408 3418.307353 16612.724446 16071.508109 14109.412581 11908.376439 11438.190390 7731.923854 6949.440601 4703.264341 6042.276265 2836.928172 1726.876410 16425.821194 13271.940716 14981.811364 10274.981614 6116.963937 8017.896248 4383.230051 4258.032857 2657.718003 4620.818608 5981.542123 17634.615057 15916.249825 16489.561863 13673.203715 13132.122792 8181.100100 6488.240699 4460.121542 6216.156193 2725.224601 2810.856719 17279.453472 14932.864912 16158.442744 13373.612179 11117.411290 8666.972833 10856.166672 5670.396889 4755.989427 3294.184038 1591.454595 17710.408821 16406.599140 13501.768114 12793.184909 12442.803465 8647.791888 8704.988918 7476.519860 2356.249173 4229.782679 3616.329362 18114.219463 16024.724930 15480.328300 17540.151984 11926.224940 10961.423827 6255.292095 4695.803205 3513.366402 3806.380638 11060.019790 19331.784502 17221.236273 15709.413319 11730.932754 11441.630024 9160.186475 5837.087472 10159.748033 2240.217440 4963.323031 2759.498216 18052.900912 16291.574498 17371.602933 7637.401053 6338.206486 7655.874994 5635.382399 4636.979564 2970.860807 3932.153734 -1048.791424 18064.651478 14234.891057 14293.766523 14756.236031 7407.353644 9159.358257 9287.177928 2725.849712 5232.084317 8876.826691 3601.155114 20432.483832 18218.520216 14978.273416 15340.140424 12526.854426 8851.135591 3161.213755 11487.013432 4441.885964 2077.251679 1757.836278 19403.539460 18374.827172 16783.279434 13971.377248 9022.502381 11604.839824 12783.779534 5930.563071 5940.249554 2285.233357 2062.229815 18062.290499 17026.424902 17846.454497 14747.609228 13619.213444 11305.217949 12115.315556 7639.266781 6852.858683 1907.850021 2193.928609 19504.452200 16374.025399 18501.439752 14966.653392 14613.398152 13255.360547 9951.894186 10189.369330 5898.112564 4875.501027 2171.862803 20548.044465 20646.091801 16996.976579 17226.187937 15176.804080 10018.800174 10198.959992 8058.935919 5415.408097 4211.637977 1957.044211 19941.133805 19289.764949 19613.950016 17125.949324 14337.782170 13580.289810 8237.210383 6957.019292 7715.892745 8146.377126 4733.192760 21936.671203 20441.392725 19630.304923 17260.646250 14448.409695 11862.786225 7585.480202 6809.571470 3828.006024 5000.535870 1993.387593 22635.942486 20167.230812 19078.619316 17049.434386 11187.724574 5175.224595 5540.698661 7155.540024 3356.109056 4492.449943 -537.803301 22213.153044 21295.482337 19304.242372 15836.195362 10902.150558 10584.771825 8313.832598 5433.607410 4923.532345 3459.084949 2172.414461 22673.642060 20272.208146 18878.662715 15152.072264 10478.866505 8863.451128 7739.623216 5838.241504 6255.996834 2944.863714 1917.460511 21501.050113 22069.593506 14764.743265 12983.968282 12406.761857 10998.635988 12009.260943 9115.969372 8266.334856 5083.612085 2398.741930 23711.869009 19549.036846 15987.697970 15550.631535 14406.744655 11963.274265 11177.276714 12185.272621 7007.435478 5411.291865 4953.690152 21652.733246 17642.778333 18339.205374 16767.645433 15139.754697 14211.079503 12226.888989 10058.456292 6867.478271 5231.184941 7251.990533 21535.571695 20340.717017 18267.260511 19076.106527 15427.851277 13676.098757 8925.626471 6796.256112 8125.580740 6280.749460 12529.567107 22530.051653 19869.944954 18778.302633 15125.883634 15483.858104 13813.820706 10857.834609 7452.031971 11278.486677 2677.430601 2048.427490 22296.785844 22136.548359 18112.373998 16919.192021 16405.490734 13319.305079 14036.045355 7698.587205 5588.114834 4406.561056 2999.602875 24012.859212 19510.167488 18513.091001 17991.854519 16886.735330 16442.191715 10678.024029 11145.265723 5851.588774 5474.221673 3656.919344 21931.946743 20247.935125 20519.098145 18699.554965 16609.324233 16910.112764 13633.897872 12021.413471 8756.998398 8529.066674 2518.166306 22027.543691 21292.880842 18756.187925 18029.635487 17455.563555 14648.177744 14162.382602 12026.902658 7596.402965 7016.470756 4324.407421 23402.357641 21955.816172 21061.436226 21289.508633 14808.095946 15813.324731 12917.959629 8506.048556 5022.599969 4406.509181 1074.101027 22127.553029 20609.281421 20943.714148 16580.387987 15260.664726 13572.246244 10188.305451 11733.028468 7299.974633 3154.387283 2618.625003 21430.938869 22519.014829 20578.077809 19537.710541 17312.842019 12821.033584 14687.258312 9386.503421 8803.926050 5992.450846 1515.116612 23888.200835 22719.077583 22492.653223 18972.861563 19849.824731 16662.552073 14549.756796 10442.892227 7298.618289 7135.227343 389.545277 23949.584643 22063.632943 23100.203326 22213.620054 18869.957436 18391.722029 7522.996664 11680.857591 8879.098161 5664.919546 2028.992462 26099.433883 23616.517421 21586.308104 23830.887424 20336.464856 20283.020247 12909.645496 8266.298855 6992.400176 5389.155421 2468.220738 25498.916638 23039.423668 28356.483140 20355.904662 16975.912292 16190.257740 14677.887584 10372.119240 11969.632114 1220.242515 -191.745812 25134.431379 24122.081816 23458.453125 23752.480667 20403.673689 19056.493825 12842.079510 10641.938143 5637.396623 566.740198 822.418848 27474.083469 27156.863357 25869.924114 20274.896343 21074.480292 15732.894504 15947.330351 12021.800903 5353.952531 5672.828017 -6499.064293 28920.899112 25882.378005 21364.734520 24120.407934 21133.405804 15033.122734 17019.810468 10310.059750 10720.093348 13180.677211 -144.835746 29240.700749 28150.331159 26420.686876 26242.563146 19505.239295 19204.402453 16968.393512 10975.721218 10844.637010 4215.938823 4070.191902 30512.607102 28699.897827 27909.061330 24285.887486 22553.979009 18781.407017 12704.014234 11527.857959 7353.582684 2942.295574 -756.734101 29905.398633 27884.114133 27146.587882 25417.792880 22817.020396 21081.598854 19343.255055 11580.188083 11885.763878 4398.253370 4117.985307 31532.790554 30495.439859 24576.478200 25201.182197 22067.278253 21041.034868 15234.074267 13827.725102 9667.032445 6346.447461 5491.943918 33340.592463 28527.664159 30517.089001 24403.046484 25514.695323 18180.062886 13536.294336 13883.141342 7241.574606 3259.244796 -1442.544894 31504.073799 30978.543168 29567.802544 27701.150789 21317.879657 19431.133197 16314.737090 14004.061570 9493.151103 11498.512818 2470.617590 32697.300344 30798.976774 25310.499792 26312.996473 21866.483213 18884.149209 17951.928508 13007.370436 14689.510935 9548.431630 7411.877628 35746.326269 28493.897215 28032.942454 26667.640284 23834.551109 20067.397904 13556.354271 16839.624894 10832.580189 9443.207171 3985.205523 34759.630808 31913.817384 30203.389592 24053.437575 26172.001535 16501.142635 21022.020360 15929.340870 11089.899624 7391.157231 1809.677702 36428.920203 32264.182340 28142.411485 27229.221011 22661.879624 20199.088126 17318.765025 14237.118269 4602.828217 8588.936375 6587.015448 34051.661399 30129.303097 31113.691207 25470.765977 21865.506657 18991.045484 19480.265247 11371.755622 10591.937082 2967.443680 -4676.662071 34504.746392 33290.861328 26012.869462 25546.505506 20214.291226 22555.090787 16448.328780 12692.526170 13823.628542 3802.832376 -25484.649156 37694.314610 31915.000854 32837.139738 25425.551367 22835.846631 22983.575525 20162.629100 16378.342232 16274.157263 8875.280786 1521.004886 34515.816927 34864.781700 29837.488655 28905.077608 19102.428980 22058.457108 17954.535719 14359.001831 8916.407033 8464.480278 -4750.023767 37908.021087 33602.342912 32215.393208 28651.096017 24878.582923 25224.652881 20220.630074 16072.628006 15972.315766 10690.756729 -10393.073378 34094.589510 33842.398252 28541.831165 31902.909550 21137.693726 24734.467610 16061.082768 17405.780685 15351.331409 6455.960193 8053.036905 34358.245849 29531.565686 31449.224360 27944.274671 28710.837914 20548.308905 18238.362994 19649.084981 13635.917648 3738.285311 7555.503372 34639.818114 34687.368530 31693.919475 28343.155868 24773.287516 23341.935371 23787.288843 19378.665016 13850.248704 13764.476785 -25484.653738 35948.202877 30015.555156 31624.292755 23531.624405 28196.288413 24015.894272 21127.709032 19606.670007 15882.316336 11304.746281 12761.334201 34082.676913 32167.415197 30855.675542 27123.978130 26362.317895 23881.996617 21223.817435 15386.417243 13517.841989 9116.421994 4978.588412 34183.389856 34470.125969 24709.837781 22049.799231 25788.646496 21414.445145 22106.912481 12753.569591 15727.246490 14679.759431 2499.651975 29116.922253 36258.808761 31751.412120 30436.835796 20802.251403 23917.804797 16701.044583 19947.935469 17062.058601 14454.320424 15120.777229 34255.939063 27641.374223 26910.100916 30276.028133 30282.282097 17270.870487 26411.210125 19267.849974 19935.462810 12084.857240 14469.620579 33632.588433 35671.666643 36785.095828 35013.181822 22372.694294 30339.645405 26736.017040 15683.656397 18915.046905 17754.804913 3420.507500 35610.146438 35323.621721 28713.391392 33245.211232 26208.535926 21922.158990 32154.519667 28079.381404 18277.596951 15576.401263 8604.257606 13897.589503 25464.999285 25377.392449 15817.817816 8407.451524 22095.064691 20969.009445 13115.743770 16943.310963 13445.073109 10168.359938 7284.150246 4091.009296 -3957.741565 16992.725904 9924.907869 18252.676505 20308.668307 6429.426990 22084.057434 12632.864519 5264.683202 16031.009212 4128.568213 6313.698702 5094.977330 2658.642420 3368.681502 10036.837850 12274.454224 8228.330319 6592.054733 8548.278946 4298.027554 10155.093727 12660.343800 13144.975980 6746.152428 5314.925291 6056.509751 4097.446877 10700.456804 10864.514454 9634.321808 12438.004957 13798.342884 9217.703691 11019.612341 13994.999773 12330.191525 7501.359878 9952.610642 9007.624867 2537.144205 3371.600125 9255.390974 10173.682167 14933.482558 10486.675550 6979.000300 12658.463293 7210.500688 9639.031703 11630.462313 9359.376842 4500.512533 8354.922321 5604.547762 2248.783743 3696.346258 8840.838960 9716.746165 6778.033971 15063.328811 12871.780022 9453.528635 10107.805051 5696.390197 6189.215635 9755.839159 8101.400311 5009.664839 4939.853412 -77.622454 14895.996764 4155.169001 8631.137110 5654.026860 4554.151767 5308.507980 7784.758272 8213.227467 4644.031934 4750.849279 8285.704751 3437.686573 1911.455494 7160.015807 5835.619712 9392.905324 6852.064865 8946.840702 6763.942089 10272.240837 5766.395540 5900.650316 1522.470121 5105.569852 5361.117766 3169.349192 3340.796598 3222.797464 9288.025136 9591.739376 5100.789685 4113.265990 9445.269790 2231.876602 4877.145443 2494.125745 1471.750139 5885.913846 4552.108120 3803.872127 3520.885443 2037.317061 5514.896472 5952.683720 8571.374311 5273.646778 7299.723574 2718.728791 8118.109744 4391.251688 7737.370154 2777.641032 4479.162679 1996.540737 2800.843209 3396.329946 1860.308269 4977.184339 8841.934395 5663.178732 3703.633783 3138.905850 4341.821538 6660.381587 7743.125827 4896.431307 6446.552320 4157.590634 2222.093398 5555.929410 8106.784713 1364.515371 6033.910564 10831.095751 3897.640693 5673.101314 3517.019938 6434.640702 3731.143740 5046.163215 2239.464539 7434.093185 1296.193586 4234.110753 2862.028500 1647.734944 1516.512070 2056.731249 1065.973448 2537.963471 4175.751635 6771.153244 8577.082191 6651.320842 2150.963473 3792.067729 1823.860284 3363.002489 1474.939467 2395.240285 818.231616 1539.447663 3164.679747 1731.305148 3566.377609 4027.269117 1898.763536 6012.978245 3530.789194 1703.460562 1155.262366 2505.978212 1504.539775 1095.284790 1275.283703 1777.558873 1570.918114 1389.487067 4456.451826 1058.274547 2173.196395 1881.058448 1683.422308 1978.190460 1361.287868 2396.244119
</DataArray>
<DataArray type="Float64" Name="Velocity" NumberOfComponents="3" format="ascii">