<VTKFile type="PolyData">
<PolyData>
<Piece NumberOfPoints="1945" NumberOfVerts="1945" NumberOfLines="0" NumberOfStrips="0" NumberOfPolys="0">
<PointData>
<DataArray type="Float64" Name="Pressure" format="ascii">
 23653.497869 23560.912060 25626.969010 23648.305250 26279.869530 22138.030665 26415.868767 24866.043571 24770.186988 23145.186647 24303.479866 23971.359272 26853.920794 26359.574386 24561.983930 20933.834665 23722.582022 21682.333601 25903.333974 25157.470062 24015.816565 21071.806141 22857.553688 21550.563695 24041.730726 23235.075097 21694.675654 20069.058727 22033.936858 21537.325826 20455.211644 19871.625975 19092.991321 19733.283428 20413.006825 21858.216643 20399.163865 19866.720016 20075.385121 19513.700975 19150.029013 20194.786643 17936.855502 18316.776730 18253.858145 19463.337276 17603.265526 17915.825881 18331.605961 18728.866863 20581.406623 21866.313339 19460.221054 19562.755943 20577.291326 22082.755357 19032.241297 19468.032733 21119.962516 21422.836356 20305.409684 20367.790279 19688.697271 20073.092637 21284.206264 21728.412641 20902.526546 21624.783278 21607.968910 22004.515805 20322.185848 20205.327540 22604.157991 21501.202620 21865.500438 21086.725821 23702.201187 22906.517345 21466.355051 20086.327392 22224.791720 22765.739777 21592.000912 23355.283805 19608.652604 20651.724435 18022.724300 19712.054458 19136.186962 21436.839219 19470.109428 20095.995221 22022.910907 23749.947088 21757.098198 22858.543942 20097.100078 20970.558678 20681.387094 21643.099456 22133.832915 23512.997291 18806.828885 21314.199633 17139.761774 18718.803240 22348.036204 24856.625536 21823.973017 23871.593069 22105.150607 22261.267300 24789.655543 23304.809856 22737.330251 21818.482146 23493.333307 23198.220703 24364.128633 24857.587335 22603.600286 23580.017856 22072.289412 23406.644000 22708.298335 22922.375423 24004.210025 24628.196296 24374.101537 24469.649539 24886.774417 24931.235299 25798.643508 25856.726047 23552.748359 24020.633674 23639.325756 25952.964806 22362.845529 23786.165910 23653.116810 25580.998203 23893.776472 26240.789339 25667.282447 26603.455151 27157.364545 25191.388968 31983.990126 30430.996199 26600.673841 26978.377215 22809.152411 23255.926713 25485.865727 26548.934534 26022.966929 27888.949929 21001.700046 24177.150997 25285.326547 28528.833257 22734.000683 25795.088782 24408.534955 27333.178781 27489.219057 28900.286730 26939.584486 29636.950353 21240.652938 25197.004068 26242.662604 28740.664209 29336.439908 29316.100349 29058.701036 30508.409406 23329.619596 24038.102174 29966.569203 33734.106442 21341.227969 24704.204931 24047.581828 27030.548888 26254.825163 27251.192302 25241.630945 26550.430958 25682.062216 28192.379232 26847.219196 27290.576401 30450.982189 30833.460513 27863.680478 29557.956295 26403.068744 26093.937990 28505.628127 26714.767695 26251.978570 25251.966977 27342.273267 26241.556247 26119.955787 24237.412812 24216.582645 23431.980004 22170.297598 21161.332139 20389.452934 19017.076515 16111.388898 14238.579253 12638.575986 9690.176654 8418.521669 6912.746437 2545.476428 632.969272 -1496.666892 -5661.879936 -6088.128244 -3792.051234 -4903.185541 -9468.497596 -9580.438367 -8455.968942 -7623.801006 -7019.260653 -6571.863116 -6233.858617 -5962.441912 -5722.577010 -5489.044582 -5246.298019 -4986.876474 -4709.271435 -4415.843783 -4111.096361 -3800.399886 -3489.147381 -3182.255113 -2883.913964 -2597.504935 -2325.611942 -2070.085597 -1832.128854 -1612.388026 -1411.040830 -1227.877988 -1062.377319 -913.770439 -781.102585 -663.287051 -559.161153 -467.585182 -387.828996 -321.934588 19736.713439 20267.987781 20166.815354 18666.041155 14095.159037 13766.009423 12059.207403 7707.062672 6916.928317 8930.350336 232.773124 2372.114520 -1366.255535 -9903.691697 -6337.518766 -2763.662404 -6379.354244 -11713.436322 -9953.170217 -8408.690759 -7651.317662 -7050.083267 -6595.746010 -6249.424931 -5970.738014 -5725.421115 -5488.357809 -5243.755033 -4983.756222 -4706.438181 -4413.801295 -4110.072244 -3800.432051 -3490.157683 -3184.104708 -2886.440812 -2600.546736 -2329.018554 -2073.724598 -1835.887090 -1616.171041 -1414.771384 -1231.494273 -1065.831191 -917.025675 -784.132791 -666.070610 -561.657332 -469.593284 -388.135002 -312.934995 21274.836201 22662.220642 22982.823104 20592.351150 21887.789728 20675.757417 14461.348985 15486.438534 15466.792685 15513.947151 14046.213280 10676.488696 7281.851494 6785.332862 11219.717855 13535.424666 8661.728421 5511.219804 4692.803683 3121.934226 -376.170055 -222.438801 1154.158388 -3445.486469 -1353.496830 -3321.392050 -2342.327327 -1375.939600 381.786793 7951.913365 5594.315817 -8697.164300 -5482.710886 -1601.132388 -687.489672 -113.895035 218.453767 373.722012 411.887776 383.140391 323.653975 256.215736 193.270431 140.314434 98.691262 67.566677 45.183027 29.580040 18.956791 11.799332 6.823212 22480.469738 22412.485753 22179.785674 21079.269518 20522.199505 18884.184196 16183.818056 15079.255293 15015.607340 14157.436466 12722.602742 10825.663796 9325.397359 8864.520716 9358.066474 9149.445283 7687.711715 5898.089703 4387.282988 2918.597509 1725.117554 1152.807640 779.078548 41.482006 -765.894594 -1406.595933 -1658.688052 -1209.560309 -31.577815 1204.720312 1070.004404 -640.198704 -1600.117296 -1342.905221 -679.071286 -148.943664 183.712831 348.411545 396.350517 375.225640 320.827035 256.351917 194.859492 142.405270 100.752721 69.347618 46.601357 30.645442 19.725488 12.380180 7.572992 -276.807159 -256.334047 -262.585704 -243.600813 -225.860889 -215.744842 -183.070034 -182.005936 -150.161973 -150.426459 -123.012577 -123.438104 -100.414112 -100.810537 -81.639862 -81.982680 -66.106919 -66.398085 -53.313293 -53.558664 -42.823324 -43.028912 -34.260534 -34.431881 -27.301635 -27.443718 -21.670806 -21.788035 -17.134189 -17.230440 -13.494714 -13.573362 -10.587278 -10.651238 -8.274346 -8.326120 -6.441983 -6.483700 -4.996310 -5.029771 -3.860379 -3.887098 -2.971446 -2.992687 -2.278608 -2.295420 -1.740770 -1.754018 -1.324918 -1.335313 -1.004658 -1.012780 -0.758988 -0.765307 -0.571275 -0.576170 -0.428404 -0.432181 -0.320086 -0.322988 -0.238282 -0.240502 -0.176738 -0.178429 -0.130614 -0.131898 -0.096179 -0.097149 -0.070567 -0.071297 -0.051589 -0.052137 -0.037581 -0.037990 -0.027278 -0.027583 -0.019730 -0.019956 -0.014220 -0.014387 -0.010213 -0.010335 -0.007309 -0.007399 -0.005213 -0.005278 -0.003705 -0.003752 -0.002624 -0.002658 -0.001852 -0.001877 -0.001303 -0.001321 -0.000913 -0.000926 -0.000638 -0.000647 -0.000444 -0.000451 -0.000308 -0.000313 -0.000213 -0.000216 -0.000147 -0.000149 -0.000101 -0.000103 -0.000069 -0.000070 -0.000047 -0.000048 -0.000032 -0.000033 -0.000022 -0.000022 -0.000015 -0.000015 -0.000010 -0.000010 -0.000007 -0.000007 -0.000005 -0.000005 -0.000003 -0.000003 -0.000002 -0.000002 -0.000002 -0.000002 -0.000001 -0.000001 -0.000001 -0.000001 -0.000002 -0.000002 -0.000002 -0.000002 -0.000003 -0.000003 -0.000005 -0.000005 -0.000007 -0.000007 -0.000010 -0.000010 -0.000014 -0.000014 -0.000019 -0.000019 -0.000027 -0.000027 -0.000036 -0.000036 -0.000047 -0.000047 -0.000060 -0.000060 -0.000072 -0.000072 -0.000080 -0.000079 -0.000078 -0.000076 -0.000053 -0.000049 0.000015 0.000021 0.000160 0.000171 0.000435 0.000453 0.000925 0.000954 0.001760 0.001805 0.003135 0.003206 0.005347 0.005455 0.008835 0.008998 0.014250 0.014496 0.022565 0.022935 0.035251 0.035811 0.054595 0.055455 0.084282 0.085635 0.130499 0.132695 0.204041 0.207708 0.324264 0.330441 0.526463 0.536195 0.876368 0.885709 1.504401 1.469728 2.762108 2.322799 4.181542 3.226896 4.873683 3.789676 19081.071638 23482.831148 19275.745379 21739.968770 20913.913062 11920.943476 19602.494869 18713.957186 19536.706649 16206.711849 20659.348114 20823.799180 19719.555196 16806.134369 20359.881650 16157.816017 11284.683703 14836.507387 15566.358496 14525.720233 18413.727506 13155.104664 23984.432090 19990.192180 26148.487024 20089.853908 16308.308243 18616.057206 7154.602428 19323.859144 14491.434206 6147.076708 18036.256102 17820.653641 19149.046702 20144.605042 12822.088666 16560.505693 16924.840571 15939.181764 9087.474018 17917.132996 8967.136935 17043.281867 13890.763418 10112.417687 19223.290505 18550.335000 18113.926822 15647.316878 16754.245025 16167.671577 9124.640850 16441.743963 15921.166990 15933.090075 17850.371592 18451.944481 22918.304868 18371.606926 15452.268047 18744.740686 16354.798423 12676.866239 10151.034682 17655.832625 15750.580336 17300.993879 20687.944263 17562.469706 17250.894176 14361.887450 15566.430460 14879.809780 11613.171223 15169.366956 6849.529825 17470.035012 16859.785506 17277.908167 17496.467037 20858.741800 13367.520992 11846.286040 15096.527730 14980.560763 10626.315704 9487.383054 18036.040569 19558.918458 17473.846964 17237.066827 17807.609441 16946.648464 12274.438588 15588.124561 14564.193636 11149.037470 14952.077739 19739.406310 17831.464236 15766.900312 17339.439547 11200.531052 17347.487089 13634.091460 13235.737192 14052.312186 4426.883124 14299.729242 20603.153470 17028.646690 16798.304141 9271.957244 19084.865092 12335.039270 17439.317863 8962.609179 7599.598655 6828.944463 3274.945236 16607.183342 17537.331113 12886.730530 18735.716045 8902.287516 15886.156034 8615.289476 11534.875791 14337.463180 13952.502437 13305.838467 19772.704167 16897.204406 17450.894254 15126.062183 12662.982441 14700.293759 16278.016354 10473.072923 16752.519501 15854.725765 10774.633958 17867.923355 18367.080853 19584.943497 19026.962514 16423.737937 16667.796139 14531.807478 12589.424717 16466.712754 7965.975166 8352.773101 20435.322287 17874.256118 21185.908553 20200.021900 15596.518417 19546.243394 12044.787065 14045.841728 4721.973047 10238.657712 4968.574136 20886.567511 19090.382586 20909.720137 19153.062854 10755.332869 12434.271911 10202.629095 7117.784694 2658.956913 2794.277220 4150.725306 19954.115817 18656.362023 18710.691258 18052.578527 15686.083426 16765.025245 13764.561681 15301.706334 5108.150820 2059.222631 2381.337617 20107.718704 20257.234188 19368.827539 15038.346757 9888.954849 6543.667892 4413.864160 3913.904787 1681.337051 1199.117177 2355.946037 18897.311222 17349.514747 16447.000563 15183.452470 12875.701362 7003.763185 9009.802208 6299.197172 8389.022154 5207.736887 1519.220860 20670.619565 18109.702567 18250.691571 13496.264351 9181.198955 8777.694185 8044.987658 4759.331306 1814.265731 631.015765 2137.797305 22229.327909 20192.641351 19532.939550 16236.814954 11663.347376 3808.945210 5446.749027 2505.461068 1986.360240 2606.112650 1887.262502 18213.689189 16937.229056 15730.122999 15152.150666 12524.566974 3023.389033 4999.471122 2466.400286 4912.023099 1331.618630 2444.042471 19779.953967 19385.964567 17101.346644 11484.750048 12077.060031 10739.576938 2019.698220 4511.844519 3319.885421 3323.002159 2406.633020 19202.495817 18433.911995 15908.311660 12291.521866 5561.785996 10658.040839 12400.401441 9985.964046 5682.509710 1646.663167 1388.181051 19331.900301 16216.764549 14924.743428 12540.575802 11454.252439 11564.608671 7621.593051 3586.484044 8864.824636 3242.827212 2475.527365 21586.328297 17332.342630 16802.112021 17457.968519 14533.273473 9531.244124 8217.849316 3369.020591 8003.785814 8023.908349 2452.912579 19428.522292 17533.802263 18602.172189 12372.030313 15822.196967 6483.893000 11575.830911 2915.451772 3607.845676 1661.563424 2853.977648 19525.796904 14949.819830 11578.666416 13874.919645 14533.794863 15001.141798 8508.590417 11246.587729 2738.595220 1360.698940 6246.232372 20218.187597 19065.574045 16250.685370 15517.734579 16357.927619 11994.454732 4795.429485 7185.247763 7379.405480 5685.301967 1546.981934 20010.076167 19187.829805 17302.800186 10265.141208 11339.641204 9220.594361 8692.945389 4423.464259 8437.352282 6325.160887 2526.114595 19462.573436 16708.812084 19649.911038 15740.090260 12285.728810 6965.914547 9287.676074 8526.446821 6623.300281 2801.685811 2236.671026 22468.793431 19438.219993 13096.921865 15027.354707 16099.042792 12968.071419 11031.850346 7488.444708 8153.535719 7301.412846 404.985509 19467.909795 9090.605871 17958.117011 15771.467386 14534.323309 13083.633973 6577.756416 8894.653049 2517.420383 5350.175853 2667.319561 21907.534609 19566.149773 17266.017078 17316.328680 14267.840437 12945.832616 9538.340138 8645.165484 3946.029349 2135.020970 634.478878 20300.911168 18796.774569 18729.994391 16553.153183 15160.465405 12813.917679 11280.142119 5051.680799 4666.651162 4484.847427 -1258.941862 21430.559017 19841.938936 20044.199440 16260.848936 17092.514681 12685.026735 10623.306337 13968.010139 4008.764238 5354.375026 1752.634004 21263.775251 20671.359860 15531.774734 16882.809328 16719.802486 11942.556985 11997.342138 9396.456255 8555.163360 5874.738263 2039.198999 20064.995153 21098.328165 18182.891020 18784.659133 16908.571592 11336.047309 12741.568021 10245.287987 11164.727189 3874.246724 4903.327540 23069.892895 21271.486038 19639.680963 15035.451142 14078.183079 10853.414989 8908.214468 5348.276302 8051.594603 5429.451669 1531.355462 21054.059878 16861.316651 18646.168331 13903.026983 7369.789699 12783.038935 5688.253643 5628.670392 2033.145572 7330.831428 19100.580042 22867.148848 19649.806769 22420.416149 17479.036267 17083.954811 10257.768427 7807.506727 5857.773877 8395.883952 1974.115344 4201.901601 21599.074955 19544.351327 18701.431163 17226.481120 13430.582672 11370.690324 15821.345748 6915.088565 6347.526173 3179.429597 1450.032960 22854.928471 20926.062592 18453.904917 16158.711703 16536.496793 11533.549117 10933.838176 9450.828412 5092.647907 4381.988451 6421.299519 21842.564859 19075.323247 18520.462409 21594.223715 15768.148576 14183.869346 8895.347541 6520.358822 5682.686112 2885.757807 1666.698128 22730.067148 21092.788729 18746.944377 12794.279061 13360.853630 13109.301509 5132.529279 15259.773442 6030.879484 9628.669726 1860.084192 21418.940729 19562.503551 20510.278536 6553.676903 8309.088899 9157.715829 8164.059184 7640.910247 5013.801012 6849.104376 3217.964141 22593.317550 17459.515787 18312.665777 18104.511164 9759.685803 12455.790425 12485.823167 3259.329628 6065.962649 12241.030158 4111.373492 22824.884049 21960.570116 18214.217106 18651.926649 14648.477313 11832.531540 5585.514724 16838.576394 9236.881594 2098.603762 1882.900670 22352.979846 22391.518245 20620.238367 16003.012502 11641.156875 16021.575105 18036.093622 6219.184900 10423.528598 2760.072494 5305.917614 22767.203419 20185.730999 21051.811560 18024.687107 16660.712254 13541.984894 15209.655104 9669.391647 10646.818561 4868.292867 2340.167316 23357.608193 21180.624048 22505.520472 17980.571694 16975.647862 16741.758535 13396.775232 14317.190244 9752.410786 7530.537906 2578.712966 24579.839046 23438.496774 20187.840770 20200.071994 17891.788877 13900.328053 13915.658934 12370.941343 8004.405357 5903.215620 785.800719 23402.378802 23478.955162 23157.809020 20020.918266 18700.660026 17659.285370 13460.011156 9625.692744 11787.909910 8959.047857 2780.168043 24697.287882 23439.583288 20837.408386 20530.126255 19067.057861 16659.106241 10292.474004 10971.496854 4687.134498 8072.296249 2857.381022 25540.165617 23229.291990 21727.834182 20010.998409 13843.996437 8358.601703 10026.982013 8758.530768 3099.089766 3068.997261 2005.154288 23212.515783 24006.028133 22317.996238 19421.002087 15943.095534 14736.473664 11441.671786 7907.544068 7389.984009 5363.261152 892.084724 24679.902346 22299.213336 21731.913717 18581.527450 14906.112173 11211.077594 12992.275466 8845.366544 5001.913126 4658.320303 -144.543475 24500.938700 23260.874342 17285.947900 15760.700818 16707.935867 16689.472841 15711.082112 12997.290253 11058.262637 6305.372562 4480.621027 26373.434579 21894.094585 19252.962977 19111.465326 18152.915705 14847.825701 14481.435028 14810.107162 10791.700731 3737.007042 3068.459800 23478.895250 22044.688752 21809.156247 20955.192155 19290.723861 16740.598617 15641.078979 12195.274975 6946.616346 6231.859453 5833.144231 26333.881772 21876.692222 20413.563462 21521.263420 19125.933172 16848.386605 9774.329374 5098.315800 6733.804820 4966.987704 30344.570328 25083.616176 22704.037687 19580.074008 19807.883346 19426.261237 16524.787568 11359.892992 10119.683685 9663.553371 5981.097879 2642.490105 24031.370041 24582.366361 23570.974066 19757.259949 19004.548935 13703.335786 18508.063719 9604.139573 3889.655676 1615.029334 2464.224382 27662.479339 23663.490141 23309.647131 21822.626294 20321.582107 17197.249449 10732.248447 13650.306126 4643.875083 2178.252421 690.810193 25140.853554 24060.100836 25387.330821 21681.367137 17238.866744 19512.618953 13887.036744 11129.684848 7969.207429 5000.442885 4788.307622 25152.460439 24910.031880 23250.460801 21185.589486 19080.860642 18263.650275 12362.264401 10322.993155 7383.120459 3464.508951 3956.290367 25249.771175 26684.022994 23341.026269 22914.353394 15177.876007 15843.891796 13466.653964 7122.128776 4967.153783 4787.729991 3334.855388 25291.559438 23577.312538 23637.997512 20665.657792 16382.774428 13293.679918 10054.382497 11258.499613 6528.551092 3495.179042 610.214015 24338.810577 28686.164017 22738.956251 20055.690183 17205.050563 11517.244755 12354.481381 7708.394953 9555.163970 5561.934385 1337.938210 26172.139097 24660.012702 23586.514071 20722.370035 16415.648700 13010.780615 12019.383687 8328.412061 4810.994636 6628.605362 7974.222016 28668.475726 25695.774913 24135.211392 23668.434559 16956.617511 16973.997401 6589.243160 11745.658668 7805.160158 3697.745451 2759.288933 26392.082134 22724.297364 22648.714125 25079.336741 19726.990434 17607.163307 12969.296674 8089.362731 5367.279631 5791.506240 2598.628911 26115.782501 27469.060747 26242.719184 20553.245466 15589.463406 17052.086181 12880.571145 9265.326613 8740.375976 1291.486207 -2298.892170 26475.911853 23725.029870 23140.714151 21721.777892 20290.180415 16015.615061 12776.668687 7299.636216 3979.031947 1011.061792 2050.583287 28332.029678 27121.948255 24383.490488 17795.837764 20726.508650 16482.013487 13873.611606 9824.723983 2956.308255 6670.118627 961.205785 26706.025652 25639.529578 21103.686627 21574.040183 20020.735867 11520.986282 14865.340728 4031.791067 8680.467142 12858.359246 3285.341010 26831.320134 28193.840609 25573.357667 25404.724187 17366.883486 16378.825736 13926.566999 9262.275961 7247.378397 5740.658420 1640.991402 25818.767963 26804.797885 24407.006790 22510.131398 21668.428491 17030.784542 11246.007774 11093.537264 6211.482445 1500.832798 2066.927331 29806.270878 23124.103617 24562.840318 24280.533423 18605.540334 17750.192689 17698.146929 10596.698497 9086.011579 6356.561383 5353.815759 26827.025440 26010.612285 22392.553669 22482.968956 18616.659303 16498.853708 13513.529359 8522.976078 7211.367893 6715.354659 5810.121989 26667.915515 25551.228191 23374.204675 19832.419922 21124.941515 14382.739704 11446.119525 12073.907085 8325.434957 4192.087429 2096.312178 27870.961280 26018.719091 23843.185002 21977.672629 19488.576369 15810.309080 14293.854301 13198.032181 8672.040906 8771.418937 8110.166620 27380.165621 24101.872230 21460.658695 20384.718470 21863.374818 16585.705319 15796.005193 10311.847050 11102.388532 7410.688635 301.130885 26649.634577 23080.550000 22791.066096 21584.604271 20105.189667 16493.353756 10895.458229 13163.118694 8766.008505 6528.875475 12379.513073 25421.157498 25581.482587 25734.198916 22640.464416 20032.877739 14617.260000 15012.156914 11250.100100 10262.188724 7644.838899 127.926736 29248.330531 25021.507048 22638.601745 23560.443006 18725.017366 15267.513668 14976.895897 11639.146811 5724.495732 9348.818236 8958.403657 27108.351621 22715.411573 23887.602392 20074.256826 18757.800143 13414.197674 14653.595124 10422.510709 9400.648296 7146.574039 -1237.541426 29159.618229 24381.746100 20183.159316 19500.992583 14506.081215 18252.375177 12890.374903 9484.208044 11646.657609 -914.158118 -1760.629434 27266.844282 23485.973139 22680.872261 18569.590056 19846.697688 17979.771842 15942.435828 12587.993502 10673.071090 5242.655391 3317.559195 28139.145930 27077.637978 22199.583888 18508.678170 16041.395372 19843.223749 14370.789954 11691.352938 6183.847158 10712.998516 -1189.510025 28172.836808 27765.795699 22454.706573 22289.829529 17828.947146 19036.293505 12606.539722 14853.096948 11207.312585 10473.819437 -249.676993 25908.514837 26844.629491 17941.497519 23538.267206 16855.694185 17975.033308 11981.066856 12851.669814 11148.886582 5313.597121 8150.671379 25134.524602 22591.974171 24600.186074 23577.931358 20672.716177 14513.568300 17179.504285 12807.514871 11050.990524 4491.819262 12141.922535 25519.286712 23084.034909 24000.412860 22326.091552 18534.091159 17169.289046 12381.895978 14279.258252 13053.365878 8757.908241 -1760.629434 29140.910656 22380.283540 25218.235103 17319.760565 18224.836607 16998.005185 16024.483484 14765.873583 9375.334164 8726.945214 13581.964951 24815.750851 23873.430267 21613.384379 19980.581106 18503.962845 15848.182149 13091.490929 12554.232436 11428.059435 8772.536139 2519.291171 24955.266142 25057.710649 16701.110361 17252.299422 16540.612621 12595.355077 17345.158037 11418.487269 10203.637778 9706.672126 13332.943492 22999.154824 26103.769866 23338.390094 22857.426101 17023.286259 14161.953126 12532.019426 13661.319957 12844.547333 8672.716431 11794.040110 25149.677526 20149.968470 20647.065550 22299.280791 24122.337002 12807.118177 21616.602622 14022.277512 13147.812523 9685.742119 12106.919997 23833.927844 25039.021575 24369.151268 22984.748904 18477.252339 23048.973127 17595.092154 13575.009511 12932.938826 13235.443356 7515.864168 23055.127009 23033.700821 20618.033861 23224.518078 19773.301973 15208.422386 22998.621049 19257.933121 10559.530804 12496.015019 8651.829375 14687.034338 19140.002227 19113.798283 17519.653870 10461.614098 20135.699473 17550.447674 15251.181561 15747.210118 12478.572543 10654.845609 9477.908756 4864.338423 -3800.118951 14277.370214 12945.487579 18171.350516 17163.776579 7520.324956 21232.134335 13693.124177 8963.647780 17797.210221 4691.920442 11483.862238 9421.506231 3358.643013 9492.023240 8571.279683 13339.911950 11406.364073 7521.721762 8085.021827 5433.526138 12065.022641 11812.610280 11054.186504 11679.361001 6175.963655 6961.784622 8747.827399 696.201671 11756.744259 9678.080455 12768.269840 13435.580415 8097.391770 11728.322197 12366.236461 10329.260861 6836.675312 12053.070845 9568.067845 6062.489193 6281.682712 5151.313774 12534.934622 17952.363572 10068.397870 8963.405784 14520.546749 7573.959217 12183.891229 12010.390012 7248.622432 3030.975921 8508.218159 6446.931816 4296.424404 4091.902066 10626.207573 12256.700282 6575.398318 16810.711162 14256.338541 13094.348991 13094.173945 5591.768756 6394.859840 7766.371132 9138.510204 6731.440877 8393.283892 2617.827355 17349.469038 3390.338886 9859.644029 6190.246896 5683.982256 9229.740277 9095.771036 11364.238025 7490.665259 2554.308538 5646.239706 5771.876020 3604.086159 3201.619300 8001.398280 10722.533782 7813.405735 13045.762138 7986.685303 13037.452497 6944.564055 8498.920027 4172.410163 2371.326411 6023.398004 4634.185332 3444.461305 6495.518876 11347.851033 12491.928967 7412.912807 5949.517904 9973.031437 3735.626764 6867.073672 2854.292254 2925.910967 7260.377799 4574.207071 5972.867377 3267.525601 -551.156055 5646.807658 7550.799499 12143.733479 6927.630419 12141.290436 2721.672623 8677.176797 4459.666631 9229.573884 3478.020468 4569.920652 5599.309774 1593.847936 3505.922927 3618.714722 8324.520844 15031.576842 8094.061837 5695.195695 4425.003151 6169.691546 9329.265241 8620.552018 6670.053787 9945.364961 5296.318659 4006.540084 4022.600882 10900.377204 3646.444391 8414.597953 14510.418603 4580.296083 9786.734948 3327.397337 11713.702294 4280.648793 7470.879167 4655.780982 12303.747174 5916.206739 4022.235797 5667.243436 2860.774746 2208.570741 4590.997331 1184.972591 726.344595 5396.232714 13294.053736 14892.505957 9432.546057 2643.284521 4440.650875 2674.764699 2914.665352 2379.812044 4633.694940 3806.499542 1142.062741 5528.537514 1668.194015 6572.768838 7219.026236 3311.949579 10043.185958 4096.541574 1989.572216 2315.516465 3960.673196 2327.910288 1789.998571 3123.981196 1069.644527 2285.444048 2619.166576 5384.622369 558.041039 2793.964199 1404.227208 964.266226 3409.298918 706.756698 141.325493
</DataArray>
<DataArray type="Float64" Name="Velocity" NumberOfComponents="3" format="ascii">