<VTKFile type="PolyData">
<PolyData>
<Piece NumberOfPoints="1945" NumberOfVerts="1945" NumberOfLines="0" NumberOfStrips="0" NumberOfPolys="0">
<PointData>
<DataArray type="Float64" Name="Pressure" format="ascii">
 23419.629563 27231.908708 31353.691011 36931.555042 29873.175318 30819.578554 25874.839905 28551.143154 30133.275749 37810.258550 33106.050630 37913.352701 31155.916209 34753.949305 31069.837848 36673.247156 29963.944169 34142.210809 31581.223854 37204.691037 32129.937909 37751.385974 31036.187098 32956.519692 32765.576080 35275.656563 35058.484509 37492.511681 33163.480738 36186.324649 29448.147999 27893.498757 32439.926072 33964.875883 29921.876197 33236.492016 26230.322857 24446.708685 31204.019923 33401.603364 26170.580343 27528.762780 25352.534996 26988.310451 27171.258978 26994.138200 26355.873283 28556.294332 25487.684062 27203.808496 21427.784016 21201.205896 25189.523266 26561.072376 25016.463370 24561.791692 22178.876325 20722.409413 22508.121571 23476.589817 20805.517138 19885.889356 20884.287274 18238.104400 21470.402785 17815.274602 21355.712868 18744.239354 19676.019192 15431.714094 20802.558968 17918.110046 18019.399871 13365.003632 18374.777606 15302.870757 16999.512764 14332.627545 16617.676505 14499.519958 16980.626776 14633.188062 17429.491807 15004.307791 17287.696550 16106.295271 15862.343259 14260.877041 15024.971438 14567.396247 13809.356025 13185.210741 13644.284309 13782.387627 13537.487426 14077.501675 13387.504764 14310.084484 13198.814410 14481.309343 12970.776122 14435.856903 12794.651015 14518.578207 12636.214385 14566.895652 12528.267028 14671.229987 12400.317124 14804.162304 12275.954583 15006.382960 12120.945253 15196.684250 11910.396172 15332.499587 11632.782040 15381.922913 11287.031859 15308.462849 10885.981534 15094.711630 10465.322306 14770.657173 10052.610980 14368.699505 9683.631259 13946.962398 9372.148251 13545.236978 9132.333019 13198.504021 8950.314546 12901.984101 8809.227205 12628.433946 8696.078273 12351.111842 8588.794074 12053.790114 8478.067797 11708.143416 8353.796621 11285.948331 8219.800104 10790.483332 8101.395480 10239.456836 8001.697743 9650.620983 7969.374681 9102.177093 8006.800197 8584.549290 8131.979199 8196.756806 8367.719144 7870.871356 8659.666034 7727.022908 9074.597164 7612.542063 9518.633405 7726.856677 10039.962801 7743.696402 10579.404150 8054.735594 11154.449161 8150.950066 11693.505282 8537.921862 12281.576349 8655.102231 12809.963579 8988.921253 13283.109179 9176.834393 14109.120730 9740.367689 14795.511048 9969.097145 15544.008651 10747.499649 16061.007889 11157.363870 15473.748050 10850.679175 15260.978364 12121.074096 13896.831228 11014.478499 12761.290524 10159.286387 14177.820876 11071.687415 14824.887481 11504.335570 13874.901638 10460.362012 12276.213382 9528.035585 8091.770828 6334.520519 8151.338681 3197.074942 12073.123386 3939.225076 15493.289331 9863.657026 24790.289181 24244.012961 24699.610891 23097.639667 21709.802653 19986.003284 17228.575763 13715.376362 10846.544274 8638.165197 6832.274428 7443.921298 8413.911219 1975.755494 -5359.960659 -4382.951069 -6512.000738 -10873.299351 -8406.669239 -5519.475243 -7926.430545 -11192.964822 -9569.599736 -7966.098239 -6770.082461 -5764.772094 -4889.547031 -4119.840115 -3441.660748 -2846.851189 -2329.948635 -1886.086761 -1509.918303 -1195.348567 -935.726880 -724.196342 -554.026608 -418.861204 -312.873071 -230.846773 -168.209139 -121.025266 -85.971066 -60.289533 -41.735893 -28.515975 -19.221723 -12.767439 -8.330377 -5.303112 -3.296243 29113.489552 29261.373465 31150.483235 30883.720040 27963.551731 28671.593895 27029.697475 21223.933197 16581.106288 14155.291196 9787.596569 10806.400348 4230.614798 -3959.027244 -10456.575498 -3092.314365 -3929.046610 -10315.535773 -8276.351808 -3861.254845 -5777.555168 -10636.404993 -9571.804988 -7866.369340 -6783.622765 -5790.551090 -4913.612863 -4140.844888 -3460.345918 -2863.872920 -2345.600317 -1900.408739 -1522.850449 -1206.833327 -945.754622 -732.811948 -561.318084 -424.944049 -317.876795 -234.905173 -171.453832 -123.581434 -87.954596 -61.805094 -42.875763 -29.359528 -19.835485 -13.205318 -8.632017 -5.476765 -3.206289 1545.814675 5178.225792 5472.096424 3625.461985 4318.650590 4170.217895 3579.547991 2344.086339 1835.374207 178.451998 1283.083204 2742.522169 1995.953721 1332.601187 828.980154 508.195734 321.277781 213.777439 148.038723 103.612208 71.191957 46.983619 29.279252 16.903587 8.737987 3.699418 0.831485 -0.629609 -1.241739 -1.381666 -1.286218 -1.094087 -0.880337 -0.681519 -0.512357 -0.376069 -0.270365 -0.190750 -0.132231 -0.090136 -0.060450 -0.039904 -0.025937 -0.016606 -0.010476 -0.006514 -0.003992 -0.002410 -0.001430 -0.000824 -0.000435 7476.392915 9424.382947 10141.341419 9140.895949 8024.108949 7532.116907 6070.748992 4190.557466 2490.995689 2069.741444 2563.777597 2455.865844 1958.505698 1349.192991 860.531321 535.280891 339.047743 223.828374 153.362917 106.545210 73.059371 48.374057 30.391784 17.785783 9.404463 4.172806 1.146497 -0.433718 -1.128703 -1.322286 -1.259272 -1.085364 -0.880967 -0.686313 -0.518480 -0.382093 -0.275662 -0.195117 -0.135679 -0.092770 -0.062409 -0.041327 -0.026948 -0.017310 -0.010956 -0.006836 -0.004204 -0.002547 -0.001517 -0.000881 -0.000494 -2.147060 -1.654475 -1.954642 -1.523523 -1.376241 -1.175251 -0.809459 -0.794181 -0.496376 -0.503285 -0.304930 -0.312160 -0.186157 -0.191207 -0.112698 -0.115957 -0.067631 -0.069678 -0.040233 -0.041500 -0.023729 -0.024506 -0.013879 -0.014349 -0.008051 -0.008333 -0.004633 -0.004801 -0.002645 -0.002744 -0.001499 -0.001556 -0.000843 -0.000876 -0.000470 -0.000490 -0.000261 -0.000272 -0.000143 -0.000150 -0.000078 -0.000082 -0.000043 -0.000044 -0.000023 -0.000024 -0.000012 -0.000013 -0.000007 -0.000007 -0.000003 -0.000004 -0.000002 -0.000002 -0.000001 -0.000001 -0.000000 -0.000001 -0.000000 -0.000000 -0.000000 -0.000000 -0.000000 -0.000000 -0.000000 -0.000000 -0.000000 -0.000000 -0.000000 -0.000000 -0.000000 -0.000000 -0.000000 -0.000000 -0.000000 -0.000000 -0.000000 -0.000000 -0.000000 -0.000000 -0.000000 -0.000000 -0.000000 -0.000000 -0.000000 -0.000000 -0.000000 -0.000000 -0.000000 -0.000000 -0.000000 -0.000000 -0.000000 -0.000000 -0.000000 -0.000000 -0.000000 -0.000000 -0.000000 -0.000000 -0.000000 -0.000000 -0.000000 -0.000000 -0.000000 -0.000000 -0.000000 -0.000000 -0.000000 -0.000000 -0.000000 -0.000000 -0.000000 -0.000000 -0.000000 -0.000000 -0.000000 -0.000000 -0.000000 -0.000000 -0.000000 -0.000000 -0.000000 -0.000000 -0.000000 -0.000000 -0.000000 -0.000000 -0.000000 -0.000000 -0.000000 -0.000000 -0.000000 -0.000000 -0.000000 -0.000000 -0.000000 -0.000000 -0.000000 -0.000000 -0.000000 -0.000000 -0.000000 -0.000000 -0.000000 -0.000000 -0.000000 -0.000000 -0.000000 -0.000000 -0.000000 -0.000000 -0.000000 -0.000000 -0.000000 -0.000000 -0.000000 -0.000000 -0.000000 -0.000000 -0.000000 -0.000000 -0.000000 -0.000000 -0.000000 -0.000000 -0.000000 -0.000000 -0.000000 -0.000000 -0.000000 -0.000000 -0.000000 -0.000000 -0.000000 -0.000000 -0.000000 -0.000000 -0.000000 -0.000000 -0.000000 -0.000000 -0.000000 -0.000000 -0.000000 -0.000000 -0.000000 -0.000000 -0.000000 -0.000000 -0.000001 -0.000001 -0.000001 -0.000001 -0.000003 -0.000003 -0.000007 -0.000007 -0.000014 -0.000015 -0.000031 -0.000031 -0.000065 -0.000063 -0.000144 -0.000114 -0.000241 -0.000171 -0.000289 -0.000210 31800.314513 34861.523775 33543.599694 33489.340404 30499.883314 30700.549018 34123.518488 28861.384970 36367.311788 28482.060106 29166.220482 36026.116858 33946.879912 35376.710619 33219.478327 31191.515995 34117.172526 33724.019730 29305.641359 30797.545153 31011.723099 20446.139410 37727.947838 37665.281959 35542.537124 37012.716178 29071.048664 28630.618325 29587.692333 26079.604520 30770.593957 21710.780710 23567.193045 35081.383842 41383.400741 34446.667423 32771.004142 32770.530995 33907.226055 34129.320865 24176.791543 29626.651176 28533.381560 25749.715541 35866.755392 36750.458970 34503.774058 32502.156985 33814.923469 27785.556007 35184.761643 30647.171644 28364.685534 19895.216549 26959.923606 35163.644430 35722.879345 31041.120577 33709.000591 30636.746768 28245.477805 26064.382319 23880.387746 27475.992800 20524.387627 28663.757964 33323.653061 33234.126775 31972.399485 30896.966277 29070.938463 29762.707717 27912.356171 24255.855467 24147.374272 26631.927181 24735.681451 30244.837327 31157.411853 29505.438650 31349.936794 30254.976590 25870.655263 27712.202261 24737.040559 23236.010467 18692.996894 18341.236092 31926.728612 32055.994575 30271.544922 26685.078592 28911.455159 25035.097277 27933.808406 24956.202889 21423.994144 20105.488342 20159.958606 30996.609069 27606.274445 31040.229658 29716.208752 28435.687214 25714.788883 24368.830845 24546.673333 21170.476233 19476.214044 17008.896181 29738.824620 29526.828786 27781.703705 24789.434083 26866.585079 23021.924935 23599.026885 18884.815423 19411.144412 16468.935133 14272.404368 25684.337901 24757.640033 23090.077052 23914.799860 24627.992891 24003.252466 19164.066182 18766.890768 16245.675464 16682.780207 10995.945880 26954.147117 27521.193038 27499.793942 19761.592815 22486.713801 16990.100698 19217.682053 15476.492934 14956.678030 10851.137448 9815.698105 22729.677324 22525.739574 19032.320264 20653.767757 19511.702918 15172.008854 14009.954600 11356.361556 12560.699746 6570.316843 4464.597200 26856.827522 19157.964682 24114.172895 18019.226895 19565.869119 15795.994701 13279.090061 11064.038232 8385.527930 7459.637461 1507.677058 21555.539325 21396.588137 18105.358847 16301.968392 12796.207922 12615.882695 11508.500253 8197.713020 4366.709851 -24.022735 -6280.739556 18816.661932 19493.028800 20185.299449 15535.804185 15351.008989 13102.554102 9601.223377 9018.085401 252.336309 -988.285402 -20931.419944 19998.176805 17192.049838 16576.116209 12104.450353 12149.481529 9384.675258 8195.996026 4827.902277 4965.222815 -1495.099242 1744.603374 18869.146988 16725.010020 15696.545233 14096.138384 12234.981128 10240.252088 6347.741494 5778.022576 5257.602384 463.961853 -12751.953678 19288.772782 15555.131962 15273.325131 12937.732232 10640.389978 10092.350235 6351.779250 3976.587753 -85.589710 -46.021046 -9117.466860 16835.391726 15398.285443 14449.825276 13206.333264 10640.801466 8038.799838 7487.088657 2798.490949 2224.002849 -494.617197 -8435.140634 15526.423409 13857.154619 13108.445681 10562.004791 10082.226815 7652.246483 5630.842716 4773.278960 3651.698885 4320.331059 -6231.211332 15327.148303 13980.903638 13677.789861 10303.773269 8852.432601 9314.394654 4549.526743 5127.824568 4266.049109 -1407.027839 -3217.303121 13790.140296 12680.742351 13035.223207 10394.109930 7030.187062 7206.543482 6212.751707 4877.055713 506.402822 6187.598838 -8896.276871 12866.026177 12302.949616 12940.246811 10098.964899 7885.456589 7010.439706 5946.451167 3954.989739 1549.798234 1708.908224 1095.122694 13317.370044 12900.493772 12493.835185 9546.805754 9134.138696 7553.920099 3095.791148 5769.574153 4405.405396 950.656405 1378.009697 13612.602418 10628.393532 12821.722017 10265.452591 7667.893486 6392.896206 6098.955351 5828.785737 -174.648809 4066.654386 -2687.029606 13251.811617 11156.106116 12280.228379 10613.827110 7852.713924 7552.410301 4837.480040 1136.006548 5249.708404 4764.484860 3107.925285 12457.533249 12234.913994 11739.281298 9383.832801 8852.701084 8340.556526 6565.518612 5835.030795 1423.675025 4566.688735 3706.335068 12208.577484 11385.900252 11189.656945 9892.936815 9140.276882 5401.489016 5585.061350 1559.305018 4828.673051 3835.221413 2800.806144 11859.451313 12918.915382 10808.296970 9618.770673 9378.069201 6540.209849 5335.067252 7012.231383 3248.083602 4355.509831 5226.146515 11847.727974 12959.365468 10917.841948 9455.449886 8557.111924 7179.602499 6147.188274 3922.475427 1732.602806 3920.663555 4129.864865 11928.360531 12026.170095 11107.692073 9641.614176 8333.289676 8065.917159 5110.429364 3054.875699 3532.461744 1873.979375 4026.035226 12153.200988 12679.834310 10954.300275 10031.532051 7451.826959 8497.520483 3621.178297 4080.606184 4420.355726 3141.467175 3385.968330 11455.589736 12348.734343 10598.085118 10189.492911 7150.413020 8627.031743 4728.497741 4032.901293 4208.489074 2297.734236 3419.991796 12096.230298 12648.749601 10140.266617 9981.211590 7557.093053 8010.997016 6207.040117 3179.373378 4291.126288 1266.497023 5184.298704 10953.203571 12579.185759 9779.829288 9519.721641 8236.204607 6659.531324 6904.554474 1646.061366 4336.062610 3066.582799 307.287620 10918.954423 12768.128221 9723.052196 8944.049055 8695.123038 5611.926408 7215.939543 986.679679 4816.718011 3477.230054 1351.471423 11862.864297 12614.259997 9703.622093 8767.514889 8570.883114 5429.868281 7130.843029 1861.559328 4135.695517 2129.867339 1186.347277 11618.653184 12031.839822 9597.886952 8826.436516 8005.903803 6015.533495 6273.450371 3555.208536 3220.401525 1858.665676 1138.297958 12379.264060 11802.022688 9720.464769 9034.619377 7255.110386 6727.902382 4959.668392 5248.120534 1910.463153 2152.000379 3304.271531 12951.919451 11832.714441 9837.145261 9149.107836 6739.429179 7188.664805 3933.255781 6107.287069 336.609464 3147.838496 5210.904578 13608.462358 11623.870838 10002.245349 9255.747618 6511.756271 7034.322576 3500.373582 5981.176577 -344.809815 3838.724014 6699.704134 13261.292526 11821.151523 10135.133629 9323.974814 6509.342709 6793.174513 3583.003617 5160.034863 176.648618 3599.813875 7766.507622 13520.481217 12091.252146 10314.084199 9275.051872 6760.530274 6371.522283 3765.909988 4405.720926 1378.614225 2404.633071 8471.041744 13785.638526 12196.418196 10599.056057 9107.240295 7160.736010 5880.108004 3909.216217 3655.237262 1931.315288 1339.751648 8087.783226 13899.835025 12116.151221 10887.364460 8886.683203 7547.773785 5454.080685 4096.574180 3079.162075 1957.199228 1070.603537 7005.156645 13828.145755 11940.186769 11098.870154 8713.517561 7790.906298 5149.499481 4369.888533 2637.499512 1884.697748 1046.696512 5745.170919 13663.592233 11701.558572 11180.872749 8581.795958 7862.594553 5018.000994 4610.406840 2357.839793 2035.532607 967.396238 4734.003237 13791.547826 11634.465081 11242.589334 8511.881765 7801.276716 5058.428520 4756.077149 2199.606677 2487.034443 696.549099 4163.363997 13854.415709 11683.713432 11328.471480 8496.705809 7656.132076 5203.459163 4771.054201 2254.566968 2830.101816 406.076669 3906.400389 14073.779635 11518.730217 11360.055074 8509.489512 7462.656836 5364.177409 4545.359837 2352.052499 2860.266394 287.342998 3628.748697 14375.531426 11532.522861 11365.508714 8543.619008 7260.499620 5463.198960 4350.577670 2486.739032 2730.914120 368.617412 3166.921366 14559.964948 11518.482655 11332.951003 8578.921133 7085.020464 5500.848013 4149.995817 2489.749001 2575.380735 480.120884 2560.202629 14639.237660 11538.602956 11273.160990 8607.113948 6954.890021 5492.890313 3985.521181 2485.166474 2498.307041 559.314783 1962.745574 14614.395245 11534.984217 11198.915020 8628.032312 6888.796147 5470.970255 3881.775150 2493.818413 2488.043569 592.924718 1458.536723 14533.934188 11501.867256 11123.364724 8647.217232 6892.536589 5458.846454 3851.483238 2524.153614 2347.272630 563.944483 1069.363349 14336.876578 11427.688346 11037.600082 8656.542263 6947.943534 5468.405699 3882.776066 2580.715009 2262.297240 567.594121 891.070759 14084.535830 11294.249723 10926.459523 8633.538880 7020.514133 5491.627302 3954.166212 2670.411195 2160.038154 556.619921 820.193772 13733.715953 11093.122161 10769.842575 8555.805179 7065.063770 5506.174621 4036.042332 2774.095758 2058.306764 604.881043 829.764380 13333.791168 10820.696849 10564.281900 8403.364134 7050.742606 5502.169215 4106.254065 2874.997043 1969.774339 717.849295 890.340542 12899.667302 10479.579771 10307.328839 8176.288691 6956.897940 5460.999615 4148.890863 2964.725585 1918.025253 892.459644 975.757346 12424.309179 10040.981344 9973.871738 7872.337133 6771.821831 5362.155489 4135.776717 3018.768892 1901.554396 1099.130017 1045.219194 11985.802987 9694.517311 9578.361817 7494.810713 6491.639107 5187.853284 4037.195272 3007.813338 1895.099894 1286.993168 1061.615640 11482.416077 9254.230487 9161.194883 7055.629526 6111.867574 4919.929840 3827.667704 2902.637460 1857.950508 1399.642662 998.741265 11088.176774 8822.004527 8734.916080 6582.513331 5653.189590 4558.287293 3501.120342 2684.472572 1748.189734 1395.127910 851.622354 10714.158777 8394.660620 8292.865927 6104.297549 5148.166820 4125.718741 3082.405240 2367.518344 1552.938088 1266.137750 642.544356 10359.522185 7991.966907 7855.330766 5660.093057 4642.513512 3669.151681 2623.926984 1992.559993 1290.914732 1043.254700 411.149898 10042.654662 7633.734018 7431.956021 5280.014180 4187.210003 3241.397120 2190.529942 1617.657386 1005.326681 781.578829 200.408202 9742.728368 7318.028570 7033.021743 4968.947088 3809.641970 2883.655092 1830.619279 1295.371485 745.442507 537.050211 42.408775 9404.224058 7056.031576 6662.526917 4736.538012 3521.837762 2617.019878 1571.914208 1056.486945 544.638314 349.773210 -51.883652 9083.159864 6800.781126 6296.153276 4539.286889 3298.277041 2424.480515 1405.440899 902.565399 415.367775 232.762078 -91.274106 8716.410840 6566.796339 5950.307134 4369.662156 3121.133220 2287.252175 1301.605941 809.550777 346.300445 171.753465 -96.789398 8318.409118 6317.615852 5586.491911 4187.494047 2946.976604 2167.108815 1229.413588 752.158023 318.066569 145.081844 -92.323403 7886.931114 6061.505719 5250.677246 3992.726324 2766.667702 2042.208199 1152.759265 695.341022 301.339309 127.656573 -94.946789 7535.886436 5861.939362 4935.690212 3808.351340 2593.912310 1924.558851 1080.355686 643.238058 290.380383 109.150363 -109.285031 7172.674786 5626.154981 4663.181559 3614.685545 2412.591166 1795.952387 991.364356 582.342501 271.740310 85.225859 -130.648294 7005.987340 5592.364428 4509.005418 3513.755192 2313.049674 1727.266093 938.291806 540.977017 262.698345 70.055467 -147.216129 6748.154114 5440.354335 4363.962603 3401.666093 2217.726460 1656.842859 898.385457 516.683160 259.939304 57.471901 -148.843170 6840.261756 5632.978366 4404.792453 3440.320269 2242.776530 1683.986668 911.180642 522.135667 279.021270 67.707542 -134.995445 6694.951773 5598.461562 4392.938775 3447.929674 2267.621887 1690.337476 933.838108 547.346176 294.406724 78.432319 -100.388219 6960.426126 5930.541929 4580.997613 3570.698809 2379.739380 1784.964994 1007.210669 596.296516 327.713355 81.662081 -78.087671 6900.845916 6009.219630 4657.005024 3721.250083 2503.524344 1850.465796 1053.282605 629.722232 364.113827 129.777892 -37.403682 7257.278775 6365.678116 4921.454732 3774.485815 2615.429119 1915.138146 1149.993644 677.280879 325.348638 20.238677 -47.011344 7283.359243 6468.522404 5087.135619 4122.757570 2873.678487 2106.002979 1264.070739 780.993147 547.367052 247.674767 -32.553794 7583.794517 6962.079493 5171.509579 4125.341191 2881.337755 2182.802285 1358.837982 735.463594 268.450147 -30.479314 -23.848946 7649.068168 6949.309769 5723.522529 4608.604628 3291.985597 2397.559393 1539.628307 1205.434055 994.754383 296.879456 8.502550 7712.518713 7747.780310 5552.839343 4648.688202 3454.174154 2762.902239 1882.349324 831.206246 466.547520 303.989040 79.037570 8167.897912 8002.722949 6087.703588 5339.737638 3708.799723 2774.939469 2082.508325 1663.151594 1079.288907 717.682632 -64.327822 7934.146009 8420.538940 6155.398189 5521.214035 3991.144398 3717.764057 2088.462559 1446.408782 1504.972104 84.165300 713.923684 9029.163387 8435.999214 7059.908924 5784.810112 4377.436927 3143.502486 2704.184807 1604.284670 1126.971237 823.203904 206.618124 9092.576055 9157.698137 6398.033505 6074.887333 4615.291332 3636.931425 3108.623342 2183.469756 985.616881 1847.439988 -52.502181 11174.609536 8173.868482 9084.785251 5363.978024 6051.786548 3803.079057 2319.296195 1618.798310 1695.774674 -287.602729 1114.621863 8697.650010 9875.555755 8573.073050 6962.349091 4711.312848 4362.894917 3624.428084 3323.280188 2663.225725 842.654891 845.238483 11661.415799 7768.042957 8245.572693 4379.719580 6158.034815 4351.241416 3158.767624 1920.648850 1851.092259 1479.513892 551.199112 8124.249826 9610.792958 7144.679072 6659.676104 5564.210092 4122.105760 3712.070676 3148.554432 2372.559693 2045.124299 749.710773 10352.563156 9106.555470 8718.793714 6539.853104 6265.609505 4945.899001 5661.485609 3048.594671 1133.419622 1275.042739 1142.900831 8237.639483 8123.486375 7106.494838 5910.186550 5980.349926 5725.913151 2536.421464 3929.861174 2724.902140 2803.999364 1294.407031 5199.839956 8445.109022 5911.000857 6689.908578 4517.948004 2905.264497 3095.930052 3566.932852 2555.208329 372.735099 1641.474874 4583.276525 5255.407094 5763.856341 6737.258562 4615.519303 4171.213973 5537.289537 2156.197434 2313.145633 1727.628913 1984.593671 8899.964383 11381.755696 4076.076935 5229.768391 4758.630222 4134.431450 3827.488307 2385.907785 2926.523293 3764.143430 142.975753 26408.661663 29454.055684 22691.480187 24374.315528 19642.142549 19434.899189 17083.155266 13130.018925 11795.896270 10364.996531 7325.445126 -382.048242 -9949.175903 -11152.310464 29423.431160 23535.810769 21725.322906 24162.350192 22477.703729 16196.249683 17831.172799 15710.412001 14260.824227 9156.049087 7610.167178 5297.590125 4621.641666 5442.930012 23592.099108 28608.010473 20884.201598 17494.529590 16602.814231 13832.864964 14104.663139 12293.378912 10730.957021 10203.282564 7566.584434 4548.188522 1673.477076 1672.887649 20903.983449 21046.334717 25758.328239 17350.302849 16057.615446 16970.112202 16019.624666 13450.916633 11361.801355 9978.379921 7131.212175 3104.637192 2518.643548 2507.661161 22132.873514 22905.880681 19682.671258 15421.230246 16555.355818 15764.783318 14112.617121 12739.125267 10946.155919 8758.483925 6990.201470 4530.971828 2976.526277 2680.716921 16763.496117 21579.324252 15277.463524 21791.185361 17881.135208 15450.585570 15062.213326 12276.254072 10133.866429 8797.983134 6785.675139 3734.192754 2702.158958 2066.884491 21676.797803 16527.971438 16051.478549 17997.659289 15403.534944 13769.608331 12396.116291 11635.480334 10340.469704 8492.142463 6475.439121 3973.387319 2484.690093 1961.919049 17404.451909 15064.339000 16841.384435 13481.234149 12759.611756 11148.126495 11783.232135 10355.183014 8842.568569 7179.458105 5942.004559 3701.384540 2844.311890 2333.444497 20380.852630 18034.568648 8642.001923 13154.905140 12171.564280 9794.136452 7003.476089 10930.534988 7415.835452 6369.456881 5226.506845 3618.433408 2671.955053 1590.023182 13054.932029 10794.449261 10746.693655 11281.057545 11792.776744 9343.767496 9751.820529 8418.853132 5287.807434 5428.436443 5048.011583 3695.468590 1764.729710 1467.645403 9925.571721 12099.292789 10336.848052 7591.021417 6815.280325 9839.501679 7038.667871 6601.972952 4258.217223 3863.229861 4116.975010 3195.488399 2368.772474 1607.699996 10427.097415 5509.072639 8861.732439 8378.810691 3828.020574 4892.223062 6145.108422 4543.389171 6787.228856 2009.228005 4603.193591 3931.203995 2796.765723 -215.683676 5127.635459 5449.798366 -840.185314 6743.512398 3426.455453 2364.092896 8367.572398 7657.267948 5263.964187 4303.864508 4494.142471 3044.291801 2493.516838 483.974106 2810.552558 4334.399568 -2196.151186 2759.074511 389.849206 4557.221292 3263.224721 1124.083578 5686.114002 5050.970554 1334.593988 3854.233401 1418.033259 1373.393800 15270.832363 -5659.812857 -1394.683979 1490.918149 -5656.521723 4613.357763 -3518.928284 -364.043094 492.129298 -641.441477 6216.743622 1101.274819 327.285052 2130.867646
</DataArray>
<DataArray type="Float64" Name="Velocity" NumberOfComponents="3" format="ascii">