<VTKFile type="PolyData">
<PolyData>
<Piece NumberOfPoints="1945" NumberOfVerts="1945" NumberOfLines="0" NumberOfStrips="0" NumberOfPolys="0">
<PointData>
<DataArray type="Float64" Name="Pressure" format="ascii">
 17449.838700 16917.592286 18944.699702 17617.262459 19833.628880 18525.034810 19144.818296 18310.510262 18428.826890 18613.001701 19127.861299 19885.440163 17130.305716 17358.183924 19526.175063 20907.956310 18654.955718 20127.769813 19515.031503 20329.735102 20207.169019 20376.878489 21884.129578 23502.249288 19139.055016 20382.237038 21324.747079 21216.612207 24470.028896 23018.958998 22942.602207 21438.980674 23527.405433 21981.070162 23538.646435 21546.789229 24378.458460 21890.435138 24857.281292 22637.290528 25487.212987 23740.879477 22368.049290 21907.254247 25326.007485 24105.112229 22499.406893 21988.477754 23657.421173 25294.434163 17730.718603 19347.030546 22496.943838 20767.482539 24075.450802 22373.709310 20676.462604 19225.547819 22470.556661 18949.692601 26324.095028 25626.758186 20421.603005 20250.442903 24048.295310 22194.255621 28438.354012 25639.607732 21628.962855 21847.526341 21049.775487 20503.038539 27659.891153 25099.417993 22919.919790 20307.939982 25546.354310 24623.445562 26714.099333 26353.838183 22917.197957 21772.648316 23577.215374 22337.028112 28070.478209 26565.214408 22839.615609 22608.892017 22083.479054 21651.418425 23027.467038 21360.993468 21129.155210 21972.865873 20036.669783 23303.460614 18254.158550 22335.183873 16954.373768 21826.443611 18597.798066 22608.372573 18641.803220 21205.674016 20700.850854 22238.491471 23324.677406 22751.594548 23797.902987 19736.843217 24830.139112 23174.943655 21257.859273 19613.145116 23757.377374 22498.275755 18087.258842 16192.347426 22265.355318 23218.685006 16281.709429 17140.403448 20630.760148 20867.033125 15741.955133 14611.754259 26311.752296 26799.403917 21489.015523 22355.625607 18918.987261 19024.801768 19869.604003 18929.004872 20212.522862 23478.282795 19817.894862 22977.381188 15985.818970 16936.445753 25586.579078 24328.910791 22976.596023 25267.037685 17386.947230 19861.102522 20008.955468 20318.923961 20791.103981 20363.693676 17534.051054 16853.539734 19885.968167 19656.440124 19063.678588 19265.304409 20393.557771 20335.265708 21902.035561 19897.582226 20824.035542 20902.542631 22871.722630 24067.199869 20434.947202 21765.895543 20376.283555 23174.093560 19020.928584 22467.284741 18924.670687 20630.654494 20997.980238 23216.694147 19585.101818 22207.387623 20948.323021 23510.393451 20148.077458 22263.715224 19778.818907 23104.666535 17386.970589 19422.891747 18092.766062 20582.123952 21081.028683 21809.082399 19742.631412 20383.344039 21584.527061 23452.792230 21503.490023 19465.299683 22543.898464 19652.803779 22970.186390 21514.878140 21864.877221 20128.295121 22263.290028 21449.367712 22728.831155 21416.396059 18467.434958 20589.936569 18802.057570 24600.979521 16648.957971 19706.120810 15855.689226 15414.049329 14914.494240 12547.002437 10267.962069 9191.804859 7833.833594 6110.742091 3708.957709 1208.457234 784.633278 1077.209969 793.721329 221.474466 -2556.372268 -6065.003914 -6282.194863 -6284.196607 -6463.316715 -6568.771923 -6596.531823 -6557.522166 -6461.484538 -6317.185913 -6132.865257 -5916.352003 -5674.968644 -5415.374231 -5143.439576 -4864.187768 -4581.800547 -4299.676526 -4020.523059 -3746.464270 -3479.150805 -3219.860789 -2969.585557 -2729.097294 -2498.998594 -2279.755900 -2071.719961 -1875.136804 -1690.152683 -1516.815960 -1355.078322 -1204.797233 -1065.742239 -937.615500 -820.148198 -713.634149 -622.413960 15034.371389 14898.888305 15909.508127 13563.798169 10629.428349 10326.881358 8773.935534 7314.329775 5242.671248 1000.064008 2041.185087 2702.249935 956.184021 1003.230095 -1525.171440 -6119.911352 -6415.701721 -6184.802563 -6431.339196 -6549.895902 -6582.256595 -6545.735540 -6451.606867 -6309.024885 -6126.320715 -5911.321617 -5671.321314 -5412.951526 -5142.067752 -4863.691550 -4582.014627 -4300.453395 -4021.737111 -3748.012753 -3480.952425 -3221.852826 -2971.720262 -2731.338174 -2501.317021 -2282.128318 -2074.125772 -1877.556956 -1692.568867 -1519.210279 -1357.433197 -1207.094772 -1067.959060 -939.689098 -821.767916 -712.977340 -608.103729 27185.008543 19389.622077 15284.583489 17338.935757 11650.044669 9109.363210 8238.756380 5504.570245 4434.532469 2351.551355 643.021787 1234.491991 2947.785066 -983.536739 -672.839029 1440.314207 1288.944811 905.233502 487.037895 114.361759 -195.581482 -452.952485 -673.400910 -868.206569 -1042.113653 -1194.743016 -1322.957904 -1422.936196 -1491.565948 -1527.192241 -1529.878259 -1501.349034 -1444.748906 -1364.303211 -1264.943841 -1151.938129 -1030.547864 -905.736933 -781.939775 -662.897170 -551.560474 -450.060382 -359.732013 -281.184949 -214.405160 -158.875436 -113.701892 -77.735399 -49.674534 -28.103424 -11.278872 20039.619571 16873.044388 13839.438204 13376.960426 10822.221831 8339.052219 6809.912209 5096.251408 3575.495543 2119.059167 1173.534062 937.322384 1137.333909 1056.315890 1327.372029 1426.002370 1250.574594 891.949903 491.161194 124.699855 -185.520815 -445.342342 -668.008028 -863.969910 -1038.022231 -1190.163960 -1317.658723 -1416.984841 -1485.209635 -1520.756498 -1523.695811 -1495.715097 -1439.896263 -1360.391098 -1262.056320 -1150.088967 -1029.689843 -905.773993 -782.740635 -664.309214 -553.422847 -452.215438 -362.034510 -283.508668 -216.646912 -160.956698 -115.568817 -79.359869 -51.070848 -29.456911 -13.715736 -558.081413 -528.591270 -535.360690 -507.509991 -477.362814 -462.007902 -407.375391 -405.582655 -350.414244 -350.680393 -300.953837 -301.513775 -257.665720 -258.224086 -219.850221 -220.361245 -186.938677 -187.397523 -158.410130 -158.818939 -133.780097 -134.142292 -112.600007 -112.919276 -94.457604 -94.737663 -78.976845 -79.221350 -65.817173 -66.029654 -54.672252 -54.856074 -45.268303 -45.426633 -37.362132 -37.497921 -30.738985 -30.854951 -25.210274 -25.308904 -20.611288 -20.694833 -16.798909 -16.869396 -13.649414 -13.708650 -11.056355 -11.105946 -8.928589 -8.969947 -7.188431 -7.222794 -5.769962 -5.798408 -4.617492 -4.640955 -3.684177 -3.703460 -2.930774 -2.946565 -2.324544 -2.337430 -1.838285 -1.848764 -1.449483 -1.457976 -1.139579 -1.146438 -0.893330 -0.898851 -0.698266 -0.702695 -0.544223 -0.547764 -0.422945 -0.425767 -0.327754 -0.329995 -0.253263 -0.255038 -0.195147 -0.196548 -0.149942 -0.151044 -0.114884 -0.115748 -0.087775 -0.088451 -0.066876 -0.067403 -0.050811 -0.051220 -0.038498 -0.038814 -0.029088 -0.029332 -0.021917 -0.022105 -0.016469 -0.016613 -0.012341 -0.012451 -0.009222 -0.009307 -0.006873 -0.006937 -0.005109 -0.005157 -0.003787 -0.003824 -0.002800 -0.002827 -0.002064 -0.002085 -0.001518 -0.001534 -0.001114 -0.001125 -0.000815 -0.000824 -0.000595 -0.000601 -0.000433 -0.000437 -0.000313 -0.000317 -0.000225 -0.000227 -0.000157 -0.000159 -0.000104 -0.000105 -0.000058 -0.000058 -0.000011 -0.000011 0.000044 0.000045 0.000120 0.000123 0.000233 0.000238 0.000411 0.000419 0.000694 0.000708 0.001150 0.001173 0.001883 0.001919 0.003058 0.003116 0.004935 0.005027 0.007918 0.008062 0.012627 0.012851 0.020003 0.020348 0.031455 0.031977 0.049053 0.049836 0.075795 0.076949 0.115929 0.117606 0.175356 0.177747 0.262070 0.265417 0.386628 0.391215 0.562544 0.568688 0.806514 0.814536 1.138276 1.148452 1.579871 1.592351 2.153970 2.168661 2.880880 2.897287 3.773796 3.790817 4.831845 4.847520 6.030516 6.041751 7.309241 7.311523 8.556065 8.543272 9.589614 9.554346 10.138179 10.075097 9.810430 9.738813 8.022482 8.121188 3.525680 5.145464 -1.700313 1.805177 -4.221397 -0.270893 14674.743492 18164.724074 15903.007317 17756.484943 19059.272520 11747.343007 15210.530537 16897.216600 14999.881139 11549.015895 15584.871876 18784.582423 17019.822569 13968.750169 18156.495880 12511.696278 9132.482255 14046.571841 15614.612437 12269.372995 13969.573894 12278.510588 20725.818318 18112.688387 18086.590806 18665.402571 17310.712060 19786.721302 11922.594519 16050.355206 14378.627622 5314.066849 18510.787139 20833.193477 20755.515737 20075.647376 11160.921107 17419.645771 19881.015185 15597.135721 8949.699569 15521.548118 11397.891536 18297.096971 16049.367606 8776.636305 20074.990143 20158.309526 22481.816339 17326.670898 17778.856784 17251.534542 7767.588098 13989.591554 15241.649578 16694.308254 19392.465888 20380.613330 20764.457958 20114.710321 16798.816087 21999.440350 20208.078026 15719.175979 13498.116971 19143.683186 18614.855051 18629.438493 22322.615522 19169.251797 18309.979205 19139.224997 17961.966963 17892.681899 17083.311303 16350.468520 9331.235014 17612.705444 18435.151368 19149.011136 19363.312923 21350.056237 17795.690859 13752.462504 19099.069654 17990.737969 12125.633367 11546.672629 21432.278477 21870.558502 18304.038948 18494.008862 20455.759000 15146.710443 14389.813461 17833.534384 15753.239932 11232.567800 15412.923554 21762.924396 18221.553259 14385.182296 19324.207221 11949.797234 19872.825737 13297.727281 16071.223431 18421.263099 4926.287199 12549.853758 22152.755698 18202.001249 19771.169739 6203.046537 20304.488962 13338.421797 17578.459932 8594.188075 9053.965965 7131.020849 5723.549227 20541.016189 20800.938362 11742.581500 19715.205996 7881.150561 14704.952783 11590.897367 11945.212827 13232.087311 14684.976291 13856.753572 20841.843057 17223.367555 19035.046154 16732.638726 13593.098602 15737.403815 14170.522954 10224.699632 20258.581436 19921.774573 12261.673818 19221.236701 17773.389597 21191.672276 21048.649410 18213.022968 18568.782527 15927.677223 14172.643098 16605.203517 11095.605478 11808.547668 21588.952572 18761.618455 19248.314087 19019.217027 14794.752084 20095.562644 11866.535532 12625.943600 6312.777714 10967.695161 8429.925787 22920.993868 21501.973135 21727.174563 14855.097092 16962.595999 11827.551999 12330.050841 9680.966030 2786.499847 2511.340025 706.391318 21250.943457 20606.979085 17642.711789 20884.790605 18777.460979 16106.470397 14412.822213 15411.908200 9191.167015 16.238368 792.844200 21610.827281 18530.902991 18573.314035 13301.895776 14055.770002 7701.921518 4352.056323 6390.269959 6089.692298 5253.370141 4643.285640 20588.798544 20134.255170 19262.623330 19757.253181 15997.879910 8772.104636 12607.610681 6898.579046 6912.457098 3242.322230 4208.048661 23443.985617 20985.942669 21283.115193 17586.867055 11312.850261 8482.665534 9748.189051 6816.296777 2324.218612 3621.316278 -322.295967 21720.467902 19979.230095 19935.177162 16944.489358 11322.116777 7689.245503 6827.079180 6098.891599 4280.338545 2967.213642 6077.455719 21737.954992 20283.758441 16613.791626 13667.137601 14733.290420 5043.726908 6897.992434 5638.922262 5758.974210 3463.525671 3142.491731 22017.887747 21287.689175 20561.042077 13151.611036 14722.298099 12153.622287 4032.725799 5890.559441 5390.312389 5269.595249 -209.690714 20289.664664 19334.146934 18189.263059 15331.268437 7016.831363 9769.907204 13187.124076 7920.632603 9465.106347 5414.321472 -431.749114 20308.589176 17341.985251 18627.944796 16107.859349 12063.142383 13621.301805 10292.841135 5684.012533 10917.587967 6007.604876 4961.810270 26020.447010 20911.616650 19572.751748 21004.334169 17479.192778 11030.581849 9209.315782 8970.118225 9130.533022 7065.438020 3449.096717 22443.454979 19611.997572 16878.901843 14717.976027 21161.033898 6863.128377 12700.150884 3873.754828 4044.822357 3889.967878 1062.037334 20097.108669 15543.609225 12998.352885 15136.990510 12015.107213 15369.367737 11284.804708 13332.824342 3666.571081 5422.452245 5131.185318 19209.173520 22339.430578 18088.168689 15760.400408 16866.929364 10982.929464 7004.241220 6473.274746 8001.197460 9021.220840 5073.418374 21245.919305 19306.807754 14876.037620 11744.200655 13478.917198 7369.745233 10510.926103 7648.681806 9425.619655 8694.256214 2436.605588 21370.015552 20339.879357 22035.541682 15186.777705 14557.438559 8596.065686 9722.839031 9632.033995 9190.548136 6676.284899 5440.701256 21277.112762 19962.664034 16411.871557 16833.749409 17033.112350 14457.326724 14055.807100 8558.870515 10288.658461 7105.511123 3463.703935 22721.468638 10561.645356 16823.886629 15014.419802 18620.775367 14061.473868 7030.280850 11112.327267 6357.657068 6023.744751 4976.454143 24368.370550 20679.806085 18969.501965 17018.160003 14500.166240 10812.502827 12526.366847 9973.083337 5348.361392 4938.965157 2713.943980 21456.685817 20251.090677 17208.810530 16034.588071 14751.778414 15443.731217 9480.091117 6361.688565 3437.734584 4523.475414 1710.633194 22000.507018 20230.486687 19374.479038 18771.211352 16283.376793 16097.092594 12179.037622 12707.178042 4998.556817 5585.379910 1847.464006 20387.776423 20837.502368 14644.938308 16385.336004 18044.304039 10590.050995 13819.205472 11333.106797 9160.717525 4753.074851 -1833.781138 17248.680121 20477.386484 18830.613356 16771.380369 16934.017852 10658.827318 11349.085127 11212.894417 14900.358436 3715.924193 2976.438513 22092.790245 20206.856324 19023.825264 13654.935086 17174.178213 9301.388153 6338.418367 7796.845813 9183.613242 2907.598234 255.586130 19887.030939 17345.884300 19918.828349 11789.565250 5746.648105 7609.545481 6564.210821 6240.754918 3871.383077 5428.182039 2511.898074 23113.648161 20576.675180 21124.321053 16621.338656 16756.188134 8708.805217 7686.148216 4804.151612 7638.986114 3005.447293 949.137501 19947.040622 19335.683216 17833.557816 12761.828148 10812.612167 9347.281395 13031.827683 6540.250942 4000.899853 2383.965538 2655.383082 22025.486647 20499.166674 16155.866453 14256.469367 12463.256288 7944.663549 8250.133542 8057.271590 4700.135571 4105.039885 5256.796023 18413.154070 19535.662232 17940.877096 19239.637198 11615.691316 10465.160155 6571.548451 6167.824784 3484.504519 4103.116302 2595.742100 21646.925638 21346.653854 15888.760549 8266.552963 11636.425212 10448.102291 5578.150425 10529.881312 3899.247879 5776.521022 807.164692 21784.656028 20418.101757 19054.085939 3908.865814 6201.706688 6338.739376 6666.081513 5365.899372 2846.879879 5723.512851 4545.768631 20783.675040 16756.948984 13017.258857 15559.596811 6477.457483 11729.976862 11480.195356 1672.032460 3356.026949 8893.077232 3726.397495 22285.645006 21797.107744 15897.306053 15373.056903 12023.007425 10657.755306 3526.944393 13093.715886 6990.344844 485.685323 2321.041425 20891.839835 20467.840619 19127.856093 14456.483623 8436.030709 14159.446254 14049.555489 3670.712076 8888.197039 2775.848407 2126.347449 19205.185291 17735.508371 19289.662140 14231.158935 13408.899471 10593.639434 13769.468329 6370.644739 9360.492276 3184.058833 1981.073209 18892.804265 15836.552873 17392.057563 15874.941233 10659.222244 11870.399849 9497.956060 10316.238386 7100.942182 6714.034503 995.942794 21281.671320 18123.105756 15115.373410 13549.695771 13429.989109 11057.918027 10281.147467 10163.687209 4611.353061 3297.924130 605.677249 20157.164837 20911.367741 19059.958889 15810.609352 13491.103694 11751.504174 8340.985448 7323.944240 8548.480067 5823.716725 2072.608811 19978.190372 20106.667190 17047.712414 18089.180975 15123.225069 11981.764450 8487.414728 8264.041405 3301.161719 4297.602138 1986.066687 20919.078020 18818.184241 19068.047396 16021.756892 9300.158000 6605.751207 6292.254010 8063.473141 2074.117957 2549.283718 5437.957239 19483.344361 18615.676560 17937.652330 15355.135095 11333.443172 10472.733228 6923.626440 4358.783467 3841.884888 3608.720637 2589.657893 20015.861811 18330.012505 18164.197021 11842.367496 10263.488722 8187.252180 8324.783311 7027.061190 4566.360513 5657.850138 498.484282 19374.870545 20887.832410 14441.890891 8724.988422 13927.163361 11083.345953 8646.743476 8713.394150 9091.657923 4587.509892 3255.752280 21620.341945 17064.072496 17280.496535 16664.997379 12504.414898 11632.735691 11785.724829 15052.091773 5074.153086 3654.635949 3798.367869 19380.488374 17504.558020 17254.049698 16259.941767 14464.722647 12229.136877 8495.009858 9030.743720 5018.654012 5186.816752 5221.683742 18399.663240 17183.867908 15566.483724 16918.536187 12797.740503 12014.949426 8256.263233 5577.689141 5130.655526 4554.021106 4132.495765 19284.643756 17683.114430 18003.449304 12204.503110 16652.970199 12311.277466 6675.855772 4634.801966 5748.098617 3147.925280 1985.953666 19507.206928 20760.452430 18536.656677 15912.799227 14123.570010 12191.313800 12508.413516 5216.608486 4140.619826 2906.491256 2661.752432 22592.551272 17895.423689 18662.195074 13535.719050 15921.530176 10835.881607 8861.876050 7812.254661 5741.810444 2072.590040 2429.029763 17825.405958 16286.632810 21842.802270 17665.812564 10460.904268 15573.593275 11929.225686 7867.048827 5992.434480 5497.589645 7634.950445 20338.732179 17614.484629 18704.794803 17222.514005 11058.902031 11874.033120 8013.956592 7892.030870 7460.976476 3220.792496 4206.262170 19196.411635 19506.047021 18066.096763 18843.072965 9713.526019 12742.159839 10955.426748 5408.096112 4620.595333 3740.824041 1550.201440 20590.798663 16325.693976 16677.500635 15960.992764 10751.575060 9521.263910 7048.944372 9130.297782 6446.770189 5970.903150 3572.385671 21787.758083 20239.654277 15309.831964 12806.412414 12665.745220 6216.215732 12134.236995 5458.251082 7356.699066 6415.068952 -2101.449648 22288.482237 19125.091100 20516.641691 17340.572258 15650.962379 10405.240879 10219.760558 5013.128754 3882.898145 8346.236946 3961.713027 18965.898037 21224.464980 17190.621320 18105.744477 13876.255477 14969.679476 7737.484175 13022.362152 8183.392529 11914.435099 3676.362458 22237.786929 14905.135211 17743.995423 19776.788001 15885.012683 13067.253249 11372.898568 7686.419450 6417.225126 10087.189714 8940.362951 19473.939328 20076.909099 21082.971328 15561.690322 10882.968546 12586.853546 14689.495695 7450.278143 9723.803745 5664.575862 -1953.619811 20013.674458 16199.472896 17712.124025 16768.742109 16951.518266 16453.964616 14023.289553 8366.074097 6837.478202 2149.243587 4924.602862 19109.767186 19798.672212 18725.691790 15650.006976 16752.792568 14221.366919 13534.188063 8585.996478 7157.834184 5060.955247 -748.378146 21402.513847 22874.729963 17709.648000 18120.599446 12615.923779 11946.062856 13766.501976 3494.254633 5710.202049 11339.430744 2030.090201 19770.426643 21248.484453 20132.970281 20212.051939 15201.893011 15985.211002 9342.087519 7399.423934 11676.006026 3276.346533 2812.373053 19827.189708 19639.248863 16840.858076 15946.533334 16349.212968 12729.107360 11465.381412 9322.601721 4011.954124 6705.950152 8882.075035 19684.332584 18521.792919 20542.858624 17478.635865 16601.772504 16624.119676 15859.697276 11188.625564 9652.909363 3587.563497 3659.451254 20110.551460 19223.779325 16033.053839 17850.737696 14673.060865 11623.514127 12199.355125 8162.902516 9437.515167 3505.611201 7373.295894 22188.074635 18236.893806 19855.639169 18618.568894 15349.568931 13721.924166 8636.536273 13640.754935 9937.674161 4483.083226 1795.682257 20916.359428 21663.676084 19465.673391 15743.827231 17026.761641 14545.050211 13558.921217 9927.580298 8592.299072 7158.549867 4842.063675 18339.785857 18344.161964 17625.217550 18644.162788 15175.822144 15436.723521 12296.483829 7260.257596 10607.158021 7764.814341 229.679600 22365.032433 18730.004748 20828.151068 17577.480584 16946.734257 16119.580941 10587.221186 10324.196845 9571.809847 8425.192447 929.246859 22116.251210 19481.902827 18422.569470 18885.644323 17784.748576 12870.077574 14247.990686 11219.267409 10013.385216 6130.432253 4668.500158 22466.360418 21472.321768 14827.112462 18621.420089 14228.477115 13189.757568 11989.162072 9510.877844 6973.434525 8012.717319 10106.523633 21023.373967 18928.192664 16671.197582 18630.387523 13134.589941 15282.003255 13181.779927 8526.041643 2892.959929 9203.664164 2945.649683 22504.860156 19227.091696 16746.826466 19005.324095 15002.610912 15360.176394 8461.697403 6913.414619 9662.676674 7055.459154 3108.126114 23104.742795 18070.186487 19095.182716 16139.924478 16056.137272 18238.361085 12733.108158 14696.573899 11913.374341 10762.039629 3852.646837 21180.549835 22834.127907 17334.759914 17610.240491 13496.202785 16632.739568 12005.137619 10623.489295 4411.186777 6521.403507 1879.340796 20669.617498 20101.059556 18203.654137 16896.667499 14655.011669 10742.841419 7734.065336 13940.362645 13268.048645 8447.078842 -2279.413217 19738.505915 21839.958868 14569.818442 21842.523109 13227.209984 15260.910943 9014.851325 10670.034683 7077.057995 7473.767406 8593.887032 20010.915457 19873.122441 21902.973454 21460.965711 22924.142874 11335.938071 16093.823635 14082.895419 11217.643760 7076.723400 6768.188396 22720.525158 21597.713285 16423.109737 16811.300203 17174.500209 17123.453085 8026.804902 13672.627734 11409.975608 11093.499899 3906.602729 18804.905167 20448.962889 16356.084100 15414.385545 16178.955114 15481.715550 12890.634299 10243.804775 6570.282047 5473.928896 9095.719634 18304.325976 19732.793929 18061.212408 14923.833854 14550.372496 13061.873743 9331.689619 10598.792005 8345.249917 9671.939898 5684.728038 18388.957245 22115.147071 19651.835901 10073.178200 14886.146436 15869.551220 13204.305368 9488.426080 9799.021056 10750.162932 5414.968788 17594.394098 21935.603883 19662.140315 16762.605393 14431.833092 8854.717690 10071.935850 12004.377660 8001.074772 6991.928756 9580.340963 19060.966104 14571.631016 16612.455382 15708.791328 17341.758793 12135.324175 15459.273990 5801.421276 9931.057709 6059.259128 7177.352046 19332.935818 22215.480605 19100.902408 21674.110584 14496.459811 18779.594552 15425.087163 6337.627917 8717.615676 9906.047157 6970.606476 17708.456958 16738.013430 16779.430117 16725.198506 17269.785289 12514.594206 17961.554103 18775.848302 7110.969527 6872.282234 6980.656557 13302.208026 16508.135281 16406.677453 15628.447540 11440.432465 15451.364122 12684.743358 16539.760337 16107.614864 11737.531092 10905.168725 9073.525078 7211.683863 -5125.735936 16689.274187 11193.014355 16965.420438 16499.632903 7719.443644 17938.549101 10602.863232 9336.174831 14379.131646 6817.461667 8170.668610 6702.202808 3218.835083 9915.280601 9576.601299 10842.770237 11667.826362 4991.298072 7536.278630 6902.484336 10429.266788 9023.069110 14546.894751 6097.474300 6223.966949 4766.192731 4503.081726 3703.385949 13747.581227 9789.113302 11127.700176 12730.906183 11313.352794 10587.482118 14276.924689 11162.530694 6597.491895 12612.875104 10622.625586 7723.593402 6205.498375 3722.648289 15250.286856 18471.236862 9987.875783 9651.801077 15540.393362 11472.498487 11554.320049 10533.291877 10190.984136 5368.523603 7440.299603 7300.777111 4706.568933 2247.279485 10828.206196 17532.338980 10232.091799 18777.606964 14324.855383 15139.948994 16519.283817 8734.680770 10180.588978 9019.799444 6562.831393 8769.840144 9305.697322 2605.974818 18650.332135 4884.163175 10296.063231 11434.507328 6012.114588 13872.127214 11993.360082 14476.071732 9191.289937 6044.113542 5842.676029 8330.207618 3277.427120 3681.353170 9447.993263 8689.093598 10633.169591 15195.166051 8725.154703 13822.928821 6878.178815 5918.280979 3187.801047 7966.480945 10640.840185 7889.170566 4976.757559 5029.074909 13183.209560 14037.818174 9828.360034 2472.095733 10525.641766 4986.082697 5908.839735 5042.563712 4458.031806 7528.686297 8372.232645 6891.289845 3637.275543 3231.130842 5207.532137 8688.499349 9833.967425 6979.879840 9279.182784 4123.071510 9261.912536 6599.744877 13404.262008 2817.094762 851.607068 6166.096145 5130.026444 2382.050572 5575.120188 8709.861993 16004.518020 12647.937214 6586.164250 5909.268093 4083.091046 11315.049225 7751.856258 9631.641505 11878.281381 6853.556364 4901.680739 5723.748927 8753.421728 2206.155933 9256.269130 15522.875727 6930.278600 10089.623606 3122.317789 12081.024604 6331.151864 7455.786254 6805.139340 13074.588546 3517.537491 4127.244964 8243.364596 1389.374125 2151.815535 10246.657316 3560.511415 2525.322795 7020.840949 14416.333642 17415.765120 7475.505609 3075.205214 4078.143044 887.339827 4221.529514 1286.374374 6775.240908 5302.390247 3228.265804 5173.725491 3886.207486 6172.659933 9037.979827 5559.595918 8880.229117 6843.927373 346.524128 5742.076950 3453.370958 3505.266375 5027.546420 2729.536337 7562.989870 1773.538141 6302.118184 7166.435841 1139.525900 2663.192699 3316.988091 4411.480251 4825.477322 4625.793414 5520.471387
</DataArray>
<DataArray type="Float64" Name="Velocity" NumberOfComponents="3" format="ascii">