<VTKFile type="PolyData">
<PolyData>
<Piece NumberOfPoints="1945" NumberOfVerts="1945" NumberOfLines="0" NumberOfStrips="0" NumberOfPolys="0">
<PointData>
<DataArray type="Float64" Name="Pressure" format="ascii">
 16134.205366 15500.587966 17470.662534 16732.334077 17863.736147 16947.848823 18079.824006 17329.903211 19293.178179 18862.877892 19558.304952 18047.562138 19574.019171 19331.468637 17373.688327 18007.811457 17110.418346 16396.285261 19431.447821 20555.001695 18098.283352 20229.062852 15877.526590 17178.662853 17535.977629 18968.147502 19148.377264 20200.711003 17515.238826 20062.401424 15443.920787 17139.568605 16846.661648 18652.292536 20512.897198 22814.512667 19951.057013 21150.493530 19406.794039 21065.782135 20090.388205 20964.116805 19623.392329 21670.213773 18480.734966 20171.435126 17602.784815 17746.932030 22236.442521 24454.501920 20726.206831 21671.312882 19413.302373 20223.377886 20509.932262 21400.413743 21302.635428 22265.588568 20256.788713 21167.973060 19191.589589 20134.111279 19920.516258 21684.281912 18886.945105 20254.006612 17893.567281 18846.083727 18866.856909 20216.272412 19841.422600 20475.389169 19065.166894 19166.623335 17670.068942 17598.163868 18392.741825 18553.967270 19201.626885 19742.148995 18338.642225 18303.820552 18860.190491 18737.981906 18556.473742 18053.954340 18755.661120 19154.236268 17592.337403 17029.553733 18625.940123 17763.503844 20088.642539 20008.330464 19257.460109 18513.193659 18739.202678 19006.709845 17325.616412 16893.905776 19032.970747 18137.346252 20229.681169 19630.923509 19936.761064 19423.682828 18677.576141 17522.372013 19948.310893 19423.655295 19976.051433 19596.208099 18752.958173 18961.547318 18838.976880 19305.317418 19259.331463 18315.906426 21054.276068 20523.293074 20709.110581 18786.840069 21626.239001 19493.503904 22019.882414 19431.105802 19763.344105 17443.882188 19750.575067 18412.357228 19021.686740 16786.617652 20687.424708 18280.689645 21340.977952 18113.659106 20068.967572 17125.071958 18198.748821 16477.852749 21187.853380 20283.370755 19841.396668 19029.614006 20346.627516 19820.414883 20833.039834 20523.637791 22174.746330 21413.564127 24264.481265 24426.597906 23257.207619 23573.845383 24014.399397 24815.899139 26498.190635 27089.896914 30076.420869 28800.383825 30802.733747 29269.911116 30300.531003 27617.008115 32744.621731 30446.520918 31161.733637 28800.482867 31149.423459 30115.229298 30830.858243 29875.164809 33184.697539 33815.872595 32410.299086 32181.804752 33890.202173 33899.734351 36313.307261 37290.922894 35516.869105 36999.055837 37087.011945 38044.641014 41057.375844 43185.959733 41086.904542 43533.031448 43700.952723 45051.669509 43563.262410 44375.660566 44432.856701 44390.440768 46339.778706 45151.436039 48642.124742 44925.193781 52188.364467 49246.547518 46956.251879 46922.837798 46970.686095 46996.968732 44246.094859 47464.622142 44767.275149 49327.553287 47325.924776 48710.918049 14239.620916 14524.520915 13456.855714 11524.989468 8953.431906 7793.124624 8135.179920 6886.321643 3477.529116 -87.557089 -393.339525 316.373809 926.213219 -1306.071448 -5049.542382 -4633.493036 -3849.527782 -5635.959273 -9007.297346 -9114.995509 -8487.026088 -8131.248217 -7773.735701 -7393.179202 -6993.548135 -6577.417221 -6147.382113 -5707.099725 -5261.312858 -4815.475092 -4375.282226 -3946.242927 -3533.343680 -3140.821436 -2772.035816 -2429.424017 -2114.519716 -1828.018537 -1569.874750 -1339.416211 -1135.466805 -956.467825 -800.591878 -665.844886 -550.153584 -451.437510 -367.666230 -296.906454 -237.383589 -187.697533 -148.142723 14249.109610 15521.236097 13740.264257 12301.024756 9545.945836 7700.435221 9831.749887 8831.903549 8746.357786 5661.506851 724.895344 658.025410 1665.143332 -212.761863 -4619.039493 -4422.594494 -3084.484391 -5449.123112 -9891.252958 -9579.547300 -8433.200949 -8118.000044 -7767.376790 -7389.389803 -6990.781206 -6575.310710 -6146.014231 -5706.643582 -5261.899254 -4817.151399 -4378.012213 -3949.923244 -3537.825229 -3145.929807 -2777.588338 -2435.242769 -2120.440753 -1833.897847 -1575.591537 -1344.874056 -1140.593193 -961.212493 -804.924368 -669.751645 -553.634851 -454.503985 -370.334273 -299.183144 -239.187168 -188.376507 -143.472975 55309.262884 49665.052184 44492.548508 45829.707747 40419.225647 41061.939842 41204.273378 37565.859651 30181.555655 28770.726529 34553.173797 32279.182810 29619.451138 32944.792630 25900.229001 27502.948051 42254.512668 33738.621707 43017.414879 43729.724709 18766.674421 13359.552135 8828.087219 11753.163806 4294.946468 1294.696050 685.261519 391.136008 243.318037 163.596570 116.415913 85.770928 64.353634 48.659295 36.853676 27.863128 20.987332 15.730417 11.722719 8.680788 6.384302 4.661115 3.376651 2.425945 1.727453 1.218138 0.849535 0.584570 0.394964 0.258823 0.157196 48796.843089 46138.363770 44777.161041 44622.316100 42002.837414 42079.904924 42322.252195 38856.330981 34871.064915 33526.936460 34534.539641 34178.353128 32469.514139 30343.129873 28721.489365 29390.141484 30904.110597 28639.821869 27813.504975 24709.169000 18014.250381 13639.187970 8958.770466 5194.830459 2772.574470 1433.654154 761.179042 428.858150 261.404806 172.264526 120.720822 88.069483 65.706497 49.537632 37.469751 28.317400 21.331716 15.994978 11.926937 8.838430 6.505661 4.754133 3.447554 2.479647 1.767837 1.248264 0.871806 0.600878 0.406912 0.268612 0.172484 -121.847284 -110.037877 -114.431049 -103.645969 -94.980543 -89.404187 -73.058154 -72.521381 -57.119090 -57.295919 -44.616069 -44.863795 -34.710013 -34.928106 -26.877054 -27.056097 -20.711806 -20.856159 -15.883906 -15.999334 -12.122801 -12.214527 -9.207893 -9.280362 -6.960408 -7.017341 -5.236391 -5.280869 -3.920650 -3.955205 -2.921587 -2.948286 -2.166809 -2.187326 -1.599447 -1.615128 -1.175097 -1.187017 -0.859289 -0.868302 -0.625423 -0.632202 -0.453092 -0.458164 -0.326727 -0.330501 -0.234518 -0.237313 -0.167561 -0.169619 -0.119174 -0.120683 -0.084375 -0.085475 -0.059468 -0.060265 -0.041724 -0.042300 -0.029144 -0.029558 -0.020267 -0.020562 -0.014031 -0.014241 -0.009671 -0.009820 -0.006637 -0.006742 -0.004535 -0.004608 -0.003085 -0.003137 -0.002090 -0.002126 -0.001410 -0.001434 -0.000947 -0.000964 -0.000633 -0.000645 -0.000422 -0.000430 -0.000280 -0.000285 -0.000185 -0.000189 -0.000122 -0.000124 -0.000080 -0.000081 -0.000052 -0.000053 -0.000034 -0.000035 -0.000022 -0.000022 -0.000014 -0.000014 -0.000009 -0.000009 -0.000006 -0.000006 -0.000004 -0.000004 -0.000002 -0.000002 -0.000001 -0.000002 -0.000001 -0.000001 -0.000001 -0.000001 -0.000000 -0.000000 -0.000000 -0.000000 -0.000000 -0.000000 -0.000000 -0.000000 -0.000000 -0.000000 -0.000000 -0.000000 -0.000000 -0.000000 -0.000000 -0.000000 -0.000000 -0.000000 -0.000000 -0.000000 -0.000000 -0.000000 -0.000000 -0.000000 -0.000000 -0.000000 -0.000000 -0.000000 -0.000000 -0.000000 -0.000000 -0.000000 -0.000000 -0.000000 -0.000000 -0.000000 -0.000001 -0.000001 -0.000001 -0.000001 -0.000002 -0.000002 -0.000003 -0.000003 -0.000005 -0.000005 -0.000008 -0.000008 -0.000013 -0.000013 -0.000021 -0.000021 -0.000033 -0.000033 -0.000050 -0.000051 -0.000077 -0.000078 -0.000115 -0.000116 -0.000169 -0.000171 -0.000246 -0.000248 -0.000350 -0.000353 -0.000487 -0.000491 -0.000661 -0.000665 -0.000870 -0.000873 -0.001100 -0.001100 -0.001314 -0.001309 -0.001440 -0.001424 -0.001337 -0.001302 -0.000764 -0.000695 0.000686 0.000808 0.003668 0.003870 0.009221 0.009524 0.019001 0.019288 0.035854 0.035074 0.066908 0.056977 0.100068 0.079128 0.115733 0.092293 14508.699597 18535.948994 13367.018844 16676.255572 17290.376647 10053.625292 14693.249485 13716.754198 14410.504656 13142.616116 10587.525892 17144.210048 16556.696824 14538.733274 16654.388232 12928.428182 11848.436633 13376.795000 11605.175737 12902.219762 15205.554763 13111.108117 18700.015971 18644.806711 18013.842141 16823.751650 15508.894395 17096.581712 6212.880085 13527.306193 13024.980536 4322.395419 16807.309430 18606.853798 16282.770277 16954.820369 12177.442329 15208.938465 16300.412774 13061.243835 6163.752126 16736.064478 10481.892592 16163.559529 13860.695820 11073.096198 18152.769333 16633.658128 17319.600901 15918.388191 15853.235654 14006.663427 10651.729904 14679.423121 15229.811727 17749.870948 18226.773594 19867.757452 18715.054049 19369.513956 16274.109129 18928.595777 15459.637915 14151.443454 7611.873446 18211.948649 15689.678105 18208.653636 19380.747987 20509.931304 18023.582789 18230.741582 15487.719306 17986.878924 16046.092443 18902.562270 7874.286164 18881.095201 19646.200214 20500.909524 19528.802725 20536.691816 17379.787343 10875.179436 19143.440695 15481.825479 15975.521613 9935.021660 19834.485445 19871.823525 16700.258498 19926.493343 21373.043168 17745.253648 14424.411275 17495.556646 16383.427962 13978.228974 14648.014755 22875.555468 18851.498230 18776.856011 19236.925723 12528.653450 18445.227531 16323.668358 17333.640177 14534.097538 8971.426630 11890.523189 21504.772318 18011.475431 19839.736551 10857.227063 19349.599609 13561.889328 16139.057068 10737.896827 8475.545272 9320.720232 7505.783611 19086.854732 18438.187177 18159.747683 18165.467049 14800.399002 17400.993919 9822.491729 12827.716922 16172.005640 13484.370704 10308.553706 19570.655281 19138.806912 18161.620649 16019.648638 15148.505040 15791.738185 15773.442966 14006.351426 16381.059593 11911.381098 9194.659831 20633.328246 17993.989247 17415.676891 19280.580399 17582.476433 15223.651310 12826.112909 11980.352676 13058.469248 5951.226781 4307.208328 19730.534337 16764.655851 20424.775279 17663.814959 16481.341480 17733.535639 12901.352477 10594.989787 4019.025499 7451.477690 1996.072343 19527.149660 17372.303442 17858.146862 12935.725459 9987.411014 8712.669145 8931.400636 5355.803206 1776.135628 43.964121 1532.048279 17298.038304 16887.309589 16526.887800 17480.745701 14263.834412 14433.388281 11048.860160 13178.644904 3237.030215 1194.653357 1255.186364 17664.223235 14856.950115 14535.717628 9986.032692 8584.620154 6228.194693 4527.839158 828.171230 998.282311 925.045845 620.175307 16540.438243 15856.894939 14921.209872 13564.479115 12455.180386 7333.685027 5443.543700 3404.601048 5577.322904 3276.309696 899.783748 18700.524512 16821.071231 16760.892344 11955.197102 9524.017491 8120.978438 4527.070616 4411.795784 706.028069 -33.888685 893.734982 18200.647877 15858.727653 16604.389407 13374.169713 9519.764133 5349.904550 8065.867066 1951.187784 618.728782 2302.550972 927.024129 16220.183868 15785.052469 14691.411572 11755.451546 8658.150248 1610.274953 3644.747426 2803.264762 3936.162262 3662.998887 385.424868 18261.319276 16983.522579 14220.537171 11819.119437 7905.367025 8215.144730 1833.508477 3440.595969 2014.199998 2461.118531 -83.791793 17121.561708 14139.405148 13385.426185 11141.003827 4910.332730 6271.374598 7787.499951 6554.404043 2618.798577 3945.104045 1835.016968 15906.454539 15762.818124 12841.573303 11055.197616 8143.538403 10207.745088 7398.206646 3007.245302 4914.916880 3655.512017 573.659309 16603.853870 15500.229061 14020.619279 15088.761242 13210.861236 6628.999910 9317.437327 4743.778194 4340.444875 4380.607136 900.453711 16233.543448 14833.250519 13627.832974 10468.310962 12282.288704 6613.865440 11603.780654 3565.659163 5295.324681 2546.909965 2035.054716 16497.646262 13088.047016 10888.183164 13668.987382 10900.802530 11359.275700 5701.550255 7881.229497 1977.784396 2036.480862 3026.899788 15678.111429 15787.159109 13613.586798 10412.668317 12889.898157 8690.388976 4587.356565 6252.465737 4961.585623 5045.803812 356.248484 19502.776090 14429.593242 12980.346538 8747.197905 8887.167218 7929.974025 7130.953273 2529.191854 5194.221366 2923.203656 1596.388425 16875.464192 16334.736646 16983.046629 11017.763410 9899.391165 6594.226594 7070.408558 4200.139475 3680.413892 1954.585612 1808.115029 18602.655012 16240.931909 12307.865406 14697.144573 11182.185273 8720.354249 8596.289700 5665.763966 5245.083983 4151.589480 749.953485 14881.698244 10063.703655 16331.031827 12936.200647 9005.620334 11186.744252 6282.681440 6932.053360 2269.756634 3557.150203 2331.653128 17001.263668 17300.890411 14598.559603 11678.541194 11568.438587 9345.601376 8896.821583 6321.018906 3332.885875 1091.349356 3410.282611 17201.086424 15133.391838 15386.919576 10872.678786 11124.456293 11599.385800 6200.867389 4882.412580 2293.826159 2374.869793 90.099789 19639.012532 17313.840906 15187.188556 14445.341348 11659.880736 9532.514481 8198.253049 9802.352419 3740.307958 2117.709867 2084.306308 18026.783193 16886.034318 13189.938794 14335.645243 10335.540961 11361.571662 8205.183524 7343.295216 4848.928851 3690.012004 6674.621521 15877.371577 15269.776495 16199.730598 13869.102389 12086.426909 8405.756101 9291.453038 6904.872889 6897.980315 502.728105 -75.059254 19268.924728 17121.436198 15106.187229 12202.566628 11754.094277 8015.835477 6655.476196 3909.230565 5013.812089 2589.255990 4569.364561 17053.681972 15905.752236 14805.948230 9310.581372 6686.005352 7255.428401 4398.245360 3477.431079 2226.415731 2716.548789 -630.611698 19486.070284 18001.012338 16847.545876 13700.863122 11983.000141 7910.339814 6124.311644 3700.603071 4513.137024 -599.836753 1773.452522 17183.516022 17036.464731 15888.649070 12639.210911 9717.306299 7678.106963 8220.841929 4360.899496 4259.426647 2237.065356 2465.823697 17975.605887 17527.416634 13485.320354 11024.609241 10726.212382 7688.716948 5683.930611 5093.169771 2004.190240 2045.455751 2208.287936 16571.879178 13977.823797 16132.038638 13869.908235 10153.699995 9097.998623 5532.255811 3547.406726 2373.003167 2375.754819 -12924.516478 18070.015802 17816.738154 14069.875266 11213.800600 9215.117041 7104.399670 4687.157196 6072.508997 3890.794122 4703.525550 1051.610682 16983.194971 17064.814387 13129.053099 6288.542047 5512.335785 4741.997469 4060.571937 3625.336222 2035.930958 2752.726339 8161.914027 16076.725532 13857.795496 12976.272338 11186.968875 6679.375860 7160.275442 6428.768468 3898.581924 3901.678829 7104.346666 2957.218732 17161.201275 16325.848136 13694.506172 11577.243965 9401.922691 9582.748610 3320.269305 9666.416102 3700.580473 600.792550 3370.153174 16313.250509 16468.665918 15629.090821 13076.175601 9022.905733 11122.646690 10518.959765 6011.890520 6243.658289 2491.718907 537.546154 16509.780453 12545.039271 13271.486310 12887.789271 11764.520565 9755.551866 8414.436736 6800.191746 7640.032103 3744.940897 1990.885413 16421.737532 14974.056956 14507.455060 12777.491991 12124.741648 10569.969215 9057.217310 10269.388692 6464.397943 2676.549476 639.193250 17417.784583 15518.864609 14606.552566 14340.141437 11843.276952 10286.479758 9853.700003 9073.979106 4600.160504 3370.108887 2254.838313 16027.089308 15597.924113 14996.242245 14145.658501 13134.521909 12210.136365 8806.378830 6377.256067 6407.244259 4116.323772 9303.257159 16757.772098 19382.135425 15500.718170 13728.389141 12678.672966 11535.456455 7348.767472 5982.955600 4091.241260 3949.758394 3666.492549 16678.110655 18550.603171 15535.205341 14377.427594 12022.053196 7901.970809 4204.308131 5481.294797 3756.869817 2321.665628 10580.117854 17467.483158 17750.332615 15150.391687 14637.377980 10440.387816 9175.442470 8035.966215 4112.816026 4618.868948 5372.578966 3664.098171 17999.206161 16937.600224 16598.614055 14149.193211 10613.656479 9938.639198 6604.703559 4659.117135 4528.971197 2856.353841 996.156384 19100.407146 18176.250889 14921.363228 12835.764171 13085.207696 9883.992216 9560.019943 6811.522609 6469.237520 3821.424552 5655.977377 18925.050081 18033.939031 14362.481559 15059.046823 12851.079279 11238.677407 7965.916240 8687.669488 2738.424817 6688.112832 5432.603253 19897.691324 16663.985016 17812.199252 15584.379363 14326.487202 12872.872300 9875.096808 8222.631760 3872.665190 5263.930613 9238.292730 19782.014575 18216.743886 16595.668727 16447.263276 14965.304046 12235.737672 6941.647540 5624.475725 7197.298452 8481.193858 -37465.080701 20661.033351 18659.307540 17412.909370 13986.961895 15253.141967 12602.214145 7883.076985 7755.926670 9797.297324 8301.689257 -308.545951 23192.390741 21747.253377 17490.331538 17101.026702 12935.734663 11222.543751 10806.386876 6597.887512 9494.592879 5418.875880 9810.082593 24082.514241 19664.429601 19443.246115 14024.009926 15817.186424 13825.862006 9325.889308 7698.272776 10211.968660 6887.831233 678.457744 23129.829440 19820.347064 20124.309548 17496.796479 16279.801797 12474.429295 10705.908006 11593.158921 7385.392550 11341.074855 8197.750982 22771.486878 20811.055970 20064.499546 16915.097219 16297.802275 13300.465642 13454.979263 11858.197408 10268.973218 14468.672614 9455.954983 24430.951151 21856.025464 22569.304861 19394.749076 14611.949727 17411.727786 12423.779060 10295.954423 10317.787708 6579.348064 3281.811370 23440.554755 21187.456066 20635.039553 19615.872626 14017.177823 13121.521212 11135.926774 13808.215730 9843.121491 10716.062199 1293.739726 23875.310409 25270.584416 19849.320079 19894.321362 18034.036612 13868.453215 17997.957245 12571.587217 10548.702951 12351.950555 5652.881142 28196.507109 22120.794644 23189.179237 19918.197491 17317.375638 16084.772261 19104.689777 14761.013357 11548.954577 15220.197712 6494.979235 25691.024168 24087.250652 23558.168143 20266.304209 17946.833511 18468.066958 15193.901740 15600.815214 12991.224344 10856.014035 74.758753 28423.685262 24367.280446 22537.974535 23887.225879 19642.392305 20895.107923 13536.858631 12521.352543 12541.568153 17152.438442 6771.712493 26188.218791 25653.399090 31079.269950 21814.518778 20659.276051 20283.618845 17794.791378 11836.929318 18461.994376 7726.522380 23526.518564 26618.745746 27619.034570 26334.137628 24632.402713 19475.200413 19892.859266 17878.111926 18051.049948 14847.288759 14436.800884 -2081.649507 28319.813023 28406.639230 27827.512501 22821.075217 25341.615315 20499.553572 20439.935543 17057.794186 16801.694957 11011.936598 4744.847099 30034.664787 27587.512508 23892.667933 25827.268660 24584.333871 24325.368097 23301.229267 15910.454293 17113.863766 16108.489687 2654.526000 29977.442231 29387.609168 27308.373367 27031.687601 24902.166759 23550.960122 22462.215782 17537.755597 17726.226061 12486.669238 8795.887646 33061.084122 32418.126420 30440.954672 28014.989246 26504.822435 24973.842536 22756.436816 21251.027675 15769.045989 11009.510818 12540.204973 32509.317227 31724.738951 30395.389018 29317.156019 28833.632007 26948.123415 25746.922132 20431.512715 20053.743362 12183.741489 16056.790909 34937.028973 34900.091827 31310.597867 31449.887794 27573.250702 26961.213308 23261.491745 23431.992413 15155.500495 18534.723640 16621.122708 36151.460498 31669.599780 34712.283910 31111.997204 30231.113035 25510.985079 21138.725235 23172.697482 13891.882164 16970.410816 12362.899449 35972.631390 33764.977663 33908.280839 32014.963507 28495.361425 28374.417523 23965.070515 23885.441303 20326.495478 20812.465677 33593.087117 36632.186651 37107.346125 31921.789273 32549.125332 31451.554572 28233.599625 28087.791947 25141.881763 22012.296028 18610.985344 4097.810446 38006.917700 35506.260410 35789.393101 31712.136363 33686.774146 29226.109147 20978.941811 22831.376741 17244.849293 20059.257065 10846.642056 38218.017684 39060.293683 35643.188662 31905.621024 33141.876710 25827.854189 28409.294433 22752.691245 18526.565840 15409.314861 -269.454251 40019.211930 39623.494410 39600.552776 35677.902328 31966.581300 31421.433089 24718.655294 21394.943960 11511.037310 18242.382433 25290.028759 40332.359060 38432.418561 38468.122978 33751.792930 33188.392927 27209.718600 26744.546736 17207.492506 21169.588558 12874.902443 15658.727557 38319.072243 40546.909629 39088.618382 38493.143253 32785.702765 34526.813686 26467.436194 23052.788662 18879.022574 14965.624050 -27955.252735 43528.711188 42377.939128 42619.572095 36101.344883 33138.362939 27316.494805 25329.182947 24133.848561 18221.325614 13292.236768 14039.853410 41575.688348 42811.245846 39288.635759 41657.235363 33086.162048 34853.649503 25829.703409 21416.195653 16759.474736 10912.148815 7158.393205 44912.180941 44900.289982 43785.462315 40141.575388 38551.851026 36333.390678 29157.305284 25665.946436 19002.213635 18574.621785 23677.268177 47088.053552 47403.820615 41410.391651 43633.142975 35080.686460 38102.025806 26981.445314 24251.330044 20581.280269 19045.821306 33302.666181 45853.969612 42539.587870 42921.690018 44286.753214 38812.854378 29496.629228 27507.841964 30683.200252 17846.876604 16478.363596 22546.201936 48858.035108 48379.451403 42879.427345 44808.810742 33488.972603 33653.215839 34320.493014 30184.333599 21872.524555 23692.901722 -23211.601861 46330.753231 45352.123784 43703.370884 40965.625764 46024.517703 40944.430641 32424.400992 28121.584053 27497.877557 10666.069342 21670.886279 45602.944599 48187.124093 42910.506045 38963.484676 42412.735011 36436.929934 30754.122341 30118.290692 21654.679850 13012.829525 65101.127241 43895.649090 42947.966123 39632.209664 35787.256853 40457.332328 29770.523638 33945.641606 21372.323117 24216.686128 22569.542770 -6002.148394 44358.283232 46323.877017 45783.897720 45425.250983 33286.151748 38275.730177 24851.598260 30831.722961 24196.629474 30619.018880 24786.056997 46587.556312 45747.766902 41886.378427 42748.594952 46773.739987 27855.277471 35255.936959 28269.746347 31411.433879 23000.564030 35309.619286 47122.869174 49858.502561 40863.298902 52594.859290 37243.770463 43167.448305 34025.383650 23875.888600 26386.133092 24713.707244 29694.540979 47624.002718 45124.782626 42265.615212 45183.962515 37037.498352 29376.362859 45164.088194 40867.100391 30466.256041 31615.527771 24105.918949 9908.849213 15893.546351 15986.219854 9068.279549 6496.782513 13479.759215 11684.581118 10524.094917 10993.109904 7895.119490 5798.428935 6543.141661 -2740.577948 -8699.842354 12853.381381 5586.898919 16682.149200 12198.902112 3602.299710 13863.831189 11301.072700 4948.331152 11011.080756 6756.346703 7920.134926 5694.697237 8553.351784 4204.706262 10179.056610 9494.907397 6992.350449 10179.483301 6256.519595 7358.348396 7386.079492 7257.727555 11171.149981 7647.064904 11093.966382 6248.808088 1998.739174 13257.920556 12931.251558 8251.631574 10684.463391 13930.214047 7254.302879 8117.804578 13139.605736 10094.207587 4030.800195 8703.697516 10461.466847 9464.174469 17918.418115 11130.697863 12115.226534 13739.029560 12438.295857 6835.266340 14008.642555 11288.435137 10658.832944 10315.824785 8390.135424 6510.838499 5607.378667 5722.833491 5935.912074 3142.707962 13336.729776 14673.512212 7447.953573 15699.655197 13120.049465 9813.244812 12478.940146 7482.916373 7205.189982 8620.464321 8211.372921 4163.068886 5304.767686 3315.166230 19134.204314 5353.800200 12620.471618 7688.718995 3982.470226 9387.839624 9976.301632 9204.112093 7273.311704 3114.503774 5576.693985 5002.813408 4468.315391 3353.315739 9728.093620 14563.041061 11133.284831 11097.502273 8546.064559 11483.063351 10634.640150 8062.291896 4361.280680 6750.582680 5210.322036 3416.640587 3310.156383 1915.033802 12236.732231 14483.195253 6159.453397 6406.314023 13090.687082 3965.832049 6417.028037 3119.669389 3867.919680 9676.120350 4515.100552 6151.124946 4428.883974 1230.246888 10046.847081 7894.565617 9491.383670 6988.480870 10033.443849 3409.158629 11985.210476 6743.642678 9234.848093 3565.955376 5139.032096 3752.912951 -312.790064 7083.169043 4825.161038 8745.454479 12589.501180 5865.011791 5953.876652 5301.661266 6803.838580 8332.375977 10869.412973 6342.223109 10058.713024 8612.984432 5299.929643 2988.240210 11147.742132 910.943443 7232.774358 13576.125574 5060.639599 6242.915885 2194.731364 5956.825499 5212.949370 6237.211432 4806.346803 8530.214694 2276.395932 4033.196467 6163.182794 517.552306 1562.555090 4379.227352 2600.268783 3213.322481 4744.306911 8543.731934 9902.921449 10063.763615 4446.707136 4909.551926 2134.184025 2806.472030 1876.604255 4118.511182 1520.210495 2669.271786 4128.068917 2343.634506 2728.280546 4666.163890 4226.680013 6940.536329 5738.855753 1024.703869 1594.979751 2877.256216 1401.302678 -1609.937573 619.776984 636.009872 1560.027777 53.206649 4424.886434 787.386159 1395.168558 2395.711743 1217.074805 3681.298542 3283.270998 3565.379174
</DataArray>
<DataArray type="Float64" Name="Velocity" NumberOfComponents="3" format="ascii">