<VTKFile type="PolyData">
<PolyData>
<Piece NumberOfPoints="1945" NumberOfVerts="1945" NumberOfLines="0" NumberOfStrips="0" NumberOfPolys="0">
<PointData>
<DataArray type="Float64" Name="Pressure" format="ascii">
 6779.359215 10453.924900 11732.506145 19798.107312 15009.519380 23315.706138 15325.859652 21295.226746 15806.286274 22126.765147 16161.388553 22039.165083 16564.475643 22603.122764 16881.166583 22995.655023 17148.151951 23462.127557 17348.881405 23867.641383 17489.848816 24186.541757 17582.773668 24419.199301 17640.239986 24574.639150 17673.874063 24671.724907 17692.570400 24728.740956 17702.477838 24760.368078 17707.501384 24777.035403 17709.944601 24785.407228 17711.086300 24789.422838 17711.599302 24791.263542 17711.820890 24792.069167 17711.912788 24792.405027 17711.949308 24792.537860 17711.963176 24792.587388 17711.968189 24792.604623 17711.969904 24792.610122 17711.970454 24792.611672 17711.970617 24792.612020 17711.970661 24792.612056 17711.970670 24792.612034 17711.970672 24792.612015 17711.970672 24792.612004 17711.970671 24792.611999 17711.970671 24792.611996 17711.970671 24792.611996 17711.970671 24792.611995 17711.970671 24792.611995 17711.970671 24792.611995 17711.970671 24792.611995 17711.970671 24792.611995 17711.970671 24792.611995 17711.970671 24792.611995 17711.970671 24792.611995 17711.970671 24792.611995 17711.970671 24792.611995 17711.970671 24792.611995 17711.970671 24792.611995 17711.970671 24792.611995 17711.970671 24792.611995 17711.970671 24792.611995 17711.970671 24792.611995 17711.970671 24792.611995 17711.970671 24792.611995 17711.970671 24792.611995 17711.970671 24792.611995 17711.970671 24792.611995 17711.970671 24792.611995 17711.970671 24792.611995 17711.970671 24792.611995 17711.970671 24792.611995 17711.970671 24792.611995 17711.970671 24792.611995 17711.970671 24792.611995 17711.970671 24792.611995 17711.970671 24792.611995 17711.970671 24792.611995 17711.970671 24792.611995 17711.970671 24792.611995 17711.970671 24792.611995 17711.970671 24792.611995 17711.970671 24792.611995 17711.970671 24792.611995 17711.970671 24792.611995 17711.970671 24792.611994 17711.970671 24792.611992 17711.970670 24792.611983 17711.970666 24792.611952 17711.970654 24792.611849 17711.970611 24792.611508 17711.970470 24792.610426 17711.970018 24792.607099 17711.968616 24792.597214 17711.964410 24792.568874 17711.952225 24792.490596 17711.918195 24792.282642 17711.826719 24791.752304 17711.590453 24790.456691 17711.005291 24787.431955 17709.618599 24780.702487 17706.481990 24766.478710 17699.728283 24738.018016 17685.927520 24684.351570 17659.253476 24589.441213 17610.670916 24432.761588 17527.653799 24193.602015 17395.129713 23858.844842 17198.459182 23427.418501 16929.491873 22943.526857 16587.937359 22479.222988 16184.082656 21913.385366 15808.049306 21953.237549 15401.816768 21142.397988 14851.367989 23167.774003 11118.795351 19064.782907 7169.522619 10189.480065 12291.025884 11048.376716 9084.661390 7053.331969 5195.360877 3630.581700 2419.426164 1552.131330 971.354088 606.404372 389.712845 267.584596 201.802446 167.218507 148.467349 136.372832 125.312913 111.503718 91.843236 63.547798 29.628312 30.528213 65.896237 -387.061903 -2140.742399 -2551.487985 -1491.683088 -641.422001 -262.208344 -102.066608 -37.993894 -13.592810 -4.695764 -1.572749 -0.512452 -0.162909 -0.050653 -0.015436 -0.004619 -0.001359 -0.000394 -0.000113 -0.000032 -0.000009 -0.000002 -0.000001 -0.000000 -0.000000 -0.000000 -0.000000 -0.000000 22294.781515 19263.054503 17036.938568 14334.951497 11482.256596 8584.812491 6106.945219 4112.019325 2664.046745 1679.773972 1051.575964 674.262109 458.275389 337.585883 269.335848 226.326189 192.003307 157.584231 118.164979 66.423970 2.826822 -5.762169 479.578106 -2.454104 -5019.642819 -4428.924744 -1484.261865 -709.819623 -309.809011 -126.546630 -49.059024 -18.212389 -6.514256 -2.255456 -0.758727 -0.248738 -0.079674 -0.024990 -0.007689 -0.002325 -0.000692 -0.000203 -0.000059 -0.000017 -0.000005 -0.000001 -0.000000 -0.000000 -0.000000 -0.000000 -0.000000 21852.477203 18596.341784 16361.051575 13650.242604 10831.153616 7986.843726 5539.488008 3586.799650 2565.260654 1051.345132 -4100.398748 -3586.676946 -894.236734 -374.100830 -152.736708 -59.631834 -22.281643 -8.001605 -2.773976 -0.932105 -0.304620 -0.097108 -0.030272 -0.009248 -0.002774 -0.000818 -0.000238 -0.000068 -0.000019 -0.000005 -0.000001 -0.000000 -0.000000 -0.000000 -0.000000 -0.000000 -0.000000 -0.000000 -0.000000 -0.000000 -0.000000 -0.000000 -0.000000 -0.000000 -0.000000 -0.000000 -0.000000 -0.000000 0.000000 0.000000 0.000000 11214.526847 9877.458800 8195.985117 6439.960529 4796.538142 3377.714413 2242.574760 1392.039273 780.873793 260.540482 -880.254919 -1230.705753 -795.257796 -398.171813 -177.183353 -73.152221 -28.565943 -10.662614 -3.830653 -1.331259 -0.449299 -0.147730 -0.047448 -0.014919 -0.004601 -0.001394 -0.000416 -0.000122 -0.000035 -0.000010 -0.000003 -0.000001 -0.000000 -0.000000 -0.000000 -0.000000 -0.000000 -0.000000 -0.000000 -0.000000 -0.000000 -0.000000 -0.000000 -0.000000 -0.000000 -0.000000 -0.000000 -0.000000 0.000000 0.000000 0.000000 -0.000000 -0.000000 -0.000000 -0.000000 -0.000000 -0.000000 -0.000000 -0.000000 -0.000000 -0.000000 -0.000000 -0.000000 -0.000000 -0.000000 -0.000000 -0.000000 -0.000000 -0.000000 -0.000000 -0.000000 -0.000000 -0.000000 -0.000000 -0.000000 -0.000000 -0.000000 -0.000000 -0.000000 0.000000 0.000000 0.000000 -0.000000 0.000000 -0.000000 0.000000 -0.000000 0.000000 -0.000000 0.000000 -0.000000 -0.000000 -0.000000 -0.000000 -0.000000 -0.000000 -0.000000 -0.000000 -0.000000 -0.000000 -0.000000 -0.000000 -0.000000 -0.000000 -0.000000 -0.000000 -0.000000 -0.000000 -0.000000 -0.000000 -0.000000 -0.000000 -0.000000 -0.000000 -0.000000 -0.000000 -0.000000 -0.000000 -0.000000 -0.000000 -0.000000 -0.000000 -0.000000 -0.000000 -0.000000 -0.000000 -0.000000 -0.000000 -0.000000 -0.000000 -0.000000 -0.000000 -0.000000 -0.000000 -0.000000 -0.000000 -0.000000 -0.000000 -0.000000 -0.000000 -0.000000 -0.000000 -0.000000 -0.000000 -0.000000 -0.000000 -0.000000 -0.000000 -0.000000 -0.000000 -0.000000 -0.000000 -0.000000 -0.000000 -0.000000 -0.000000 -0.000000 -0.000000 -0.000000 -0.000000 -0.000000 -0.000000 -0.000000 -0.000000 -0.000000 -0.000000 -0.000000 -0.000000 -0.000000 -0.000000 -0.000000 -0.000000 -0.000000 -0.000000 -0.000000 -0.000000 -0.000000 -0.000000 -0.000000 -0.000000 -0.000000 -0.000000 -0.000000 -0.000000 -0.000000 -0.000000 -0.000000 -0.000000 -0.000000 -0.000000 -0.000000 -0.000000 -0.000000 -0.000000 -0.000000 -0.000000 -0.000000 -0.000000 -0.000000 -0.000000 -0.000000 -0.000000 -0.000000 -0.000000 -0.000000 -0.000000 -0.000000 -0.000000 -0.000000 -0.000000 -0.000000 -0.000000 -0.000000 -0.000000 -0.000000 -0.000000 -0.000000 -0.000000 -0.000000 -0.000000 -0.000000 -0.000000 -0.000000 -0.000000 -0.000000 -0.000000 -0.000000 -0.000000 -0.000000 -0.000000 -0.000000 -0.000000 -0.000000 -0.000000 -0.000000 -0.000000 -0.000000 -0.000000 -0.000000 -0.000000 -0.000000 -0.000000 -0.000000 -0.000000 -0.000000 -0.000000 -0.000000 -0.000000 -0.000000 -0.000000 -0.000000 -0.000000 -0.000000 -0.000000 -0.000000 -0.000000 -0.000000 -0.000000 0.000000 -0.000000 0.000000 24453.276976 20106.752525 19327.302876 16883.857313 14842.249758 11886.350468 9251.250245 6700.105549 4592.734747 3008.153721 1894.859882 21401.670024 19459.787333 17187.351667 14766.670696 13216.388214 10654.126506 8676.460236 6500.378773 4611.747903 3116.662233 2006.827630 23643.508506 20756.720491 17934.108022 16125.093986 14320.548320 11606.913121 9578.395977 7220.277672 5170.574475 3522.710619 2275.091639 22606.894955 19711.477381 17651.744787 15944.666138 14215.960564 11807.886509 9921.636585 7568.474102 5479.254633 3749.431113 2416.305938 23400.461163 20644.613514 18346.804078 16380.450065 14701.314289 12319.806959 10383.212708 7966.202484 5798.839947 3977.283672 2562.012668 23685.573093 20775.745094 18520.088645 16698.187925 15106.523405 12716.711974 10756.105565 8288.791709 6046.248157 4145.531659 2663.711281 24198.479241 21224.219771 18986.361491 17143.828099 15509.614291 13086.340483 11093.022055 8563.405812 6248.767730 4281.728361 2745.809346 24674.291435 21624.947857 19375.030127 17510.877282 15857.012938 13407.231699 11370.651257 8779.150495 6403.941663 4384.039612 2806.139633 25066.588617 21960.511933 19704.606047 17828.650999 16151.585303 13664.728009 11583.283487 8940.253831 6517.397722 4456.923381 2847.836487 25372.287209 22234.470179 19971.823917 18079.635856 16376.166835 13855.008095 11736.964070 9053.977765 6594.763626 4504.085008 2872.408243 25586.029315 22431.224204 20163.071054 18258.093187 16534.390723 13986.863426 11840.572026 9127.094884 6639.808800 4525.548453 2876.995245 25725.147804 22563.141904 20291.673176 18377.674727 16639.068654 14071.574749 11903.446736 9165.133256 6653.615065 4520.674064 2860.852825 25809.980934 22645.877654 20372.489078 18452.189944 16702.874439 14120.449531 11934.130745 9172.913685 6642.231874 4489.312212 2796.728956 25858.582205 22694.394779 20419.874739 18495.248566 16738.230644 14143.934631 11940.220584 9156.326915 6596.952578 4348.045610 2561.903286 25884.931407 22721.206551 20445.932045 18518.211842 16755.344809 14150.779919 11929.784176 9121.652637 6503.125278 4111.330509 2499.588955 25898.493880 22735.189197 20459.316595 18529.268817 16761.786363 14148.307762 11910.952730 9075.852147 6380.316114 3827.417586 2203.417494 25905.131077 22742.062197 20465.683869 18533.870564 16762.822462 14142.266896 11891.107609 9033.888245 6290.663974 3625.727978 1858.862780 25908.220404 22745.237022 20468.449251 18535.352634 16761.728012 14136.227027 11875.395689 9002.494412 6239.822631 3522.930623 1738.308292 25909.585886 22746.606079 20469.514944 18535.555357 16760.231420 14131.650468 11865.378031 8983.218809 6213.427016 3490.678354 1693.700630 25910.157021 22747.150865 20469.855568 18535.364808 16759.030555 14128.682206 11859.730908 8973.301088 6199.166109 3476.808556 1678.206182 25910.381772 22747.346788 20469.926140 18535.133555 16758.257521 14126.983169 11856.751787 8968.726209 6192.995469 3470.771660 1672.237661 25910.464164 22747.407606 20469.916372 18534.963597 16757.818839 14126.107511 11855.281192 8966.615498 6190.412738 3468.384420 1669.978281 25910.491805 22747.421752 20469.893790 18534.861461 16757.590135 14125.688108 11854.614455 8965.692135 6189.328546 3467.422442 1669.115900 25910.499986 22747.422408 20469.876560 18534.807234 16757.479189 14125.496390 11854.325793 8965.310509 6188.895086 3467.045023 1668.789685 25910.501921 22747.420497 20469.866400 18534.780792 16757.428750 14125.413044 11854.204882 8965.156612 6188.726147 3466.900813 1668.668099 25910.502138 22747.418885 20469.861165 18534.768692 16757.406942 14125.378462 11854.156249 8965.096340 6188.661529 3466.846461 1668.623211 25910.502013 22747.417941 20469.858703 18534.763450 16757.397899 14125.364617 11854.137332 8965.073450 6188.637437 3466.826399 1668.606888 25910.501891 22747.417469 20469.857621 18534.761284 16757.394294 14125.359253 11854.130174 8965.064962 6188.628645 3466.819136 1668.601042 25910.501819 22747.417255 20469.857170 18534.760425 16757.392906 14125.357239 11854.127538 8965.061887 6188.625497 3466.816551 1668.598978 25910.501785 22747.417165 20469.856990 18534.760096 16757.392388 14125.356503 11854.126591 8965.060797 6188.624392 3466.815647 1668.598259 25910.501770 22747.417129 20469.856922 18534.759974 16757.392201 14125.356241 11854.126259 8965.060418 6188.624011 3466.815336 1668.598013 25910.501764 22747.417115 20469.856896 18534.759930 16757.392134 14125.356150 11854.126144 8965.060289 6188.623882 3466.815230 1668.597930 25910.501762 22747.417110 20469.856887 18534.759915 16757.392112 14125.356119 11854.126106 8965.060246 6188.623839 3466.815195 1668.597902 25910.501761 22747.417108 20469.856884 18534.759910 16757.392104 14125.356109 11854.126093 8965.060232 6188.623825 3466.815184 1668.597893 25910.501761 22747.417108 20469.856883 18534.759908 16757.392101 14125.356106 11854.126089 8965.060227 6188.623820 3466.815180 1668.597890 25910.501761 22747.417108 20469.856883 18534.759907 16757.392101 14125.356104 11854.126088 8965.060226 6188.623819 3466.815179 1668.597889 25910.501761 22747.417108 20469.856883 18534.759907 16757.392100 14125.356104 11854.126087 8965.060225 6188.623818 3466.815178 1668.597889 25910.501761 22747.417108 20469.856883 18534.759907 16757.392100 14125.356104 11854.126087 8965.060225 6188.623818 3466.815178 1668.597889 25910.501761 22747.417108 20469.856883 18534.759907 16757.392100 14125.356104 11854.126087 8965.060225 6188.623818 3466.815178 1668.597889 25910.501761 22747.417108 20469.856883 18534.759907 16757.392100 14125.356104 11854.126087 8965.060225 6188.623818 3466.815178 1668.597889 25910.501761 22747.417108 20469.856883 18534.759907 16757.392100 14125.356104 11854.126087 8965.060225 6188.623818 3466.815178 1668.597889 25910.501761 22747.417108 20469.856883 18534.759907 16757.392100 14125.356104 11854.126087 8965.060225 6188.623818 3466.815178 1668.597889 25910.501761 22747.417108 20469.856883 18534.759907 16757.392100 14125.356104 11854.126087 8965.060225 6188.623818 3466.815178 1668.597889 25910.501761 22747.417108 20469.856883 18534.759907 16757.392100 14125.356104 11854.126087 8965.060225 6188.623818 3466.815178 1668.597889 25910.501761 22747.417108 20469.856883 18534.759907 16757.392100 14125.356104 11854.126087 8965.060225 6188.623818 3466.815178 1668.597889 25910.501761 22747.417108 20469.856883 18534.759907 16757.392100 14125.356104 11854.126087 8965.060225 6188.623818 3466.815178 1668.597889 25910.501761 22747.417108 20469.856883 18534.759907 16757.392100 14125.356104 11854.126087 8965.060225 6188.623818 3466.815178 1668.597889 25910.501761 22747.417108 20469.856883 18534.759907 16757.392100 14125.356104 11854.126087 8965.060225 6188.623818 3466.815178 1668.597889 25910.501761 22747.417108 20469.856883 18534.759907 16757.392100 14125.356104 11854.126087 8965.060225 6188.623818 3466.815178 1668.597889 25910.501761 22747.417108 20469.856883 18534.759907 16757.392100 14125.356104 11854.126087 8965.060225 6188.623818 3466.815178 1668.597889 25910.501761 22747.417108 20469.856883 18534.759907 16757.392100 14125.356104 11854.126087 8965.060225 6188.623818 3466.815178 1668.597889 25910.501761 22747.417108 20469.856883 18534.759907 16757.392100 14125.356104 11854.126087 8965.060225 6188.623818 3466.815178 1668.597889 25910.501761 22747.417108 20469.856883 18534.759907 16757.392100 14125.356104 11854.126087 8965.060225 6188.623818 3466.815178 1668.597889 25910.501761 22747.417108 20469.856883 18534.759907 16757.392100 14125.356104 11854.126087 8965.060225 6188.623818 3466.815178 1668.597889 25910.501761 22747.417108 20469.856883 18534.759907 16757.392100 14125.356104 11854.126087 8965.060225 6188.623818 3466.815178 1668.597889 25910.501761 22747.417108 20469.856883 18534.759907 16757.392100 14125.356104 11854.126087 8965.060225 6188.623818 3466.815178 1668.597889 25910.501761 22747.417108 20469.856883 18534.759907 16757.392100 14125.356104 11854.126087 8965.060225 6188.623818 3466.815178 1668.597889 25910.501761 22747.417108 20469.856883 18534.759907 16757.392100 14125.356104 11854.126087 8965.060225 6188.623818 3466.815178 1668.597889 25910.501761 22747.417108 20469.856883 18534.759907 16757.392100 14125.356104 11854.126087 8965.060225 6188.623818 3466.815178 1668.597889 25910.501761 22747.417108 20469.856883 18534.759907 16757.392100 14125.356104 11854.126087 8965.060225 6188.623818 3466.815178 1668.597889 25910.501761 22747.417108 20469.856883 18534.759907 16757.392100 14125.356104 11854.126087 8965.060225 6188.623818 3466.815178 1668.597889 25910.501761 22747.417108 20469.856883 18534.759907 16757.392100 14125.356104 11854.126087 8965.060225 6188.623818 3466.815178 1668.597889 25910.501761 22747.417108 20469.856883 18534.759907 16757.392100 14125.356104 11854.126087 8965.060225 6188.623818 3466.815178 1668.597889 25910.501761 22747.417108 20469.856883 18534.759907 16757.392100 14125.356104 11854.126087 8965.060225 6188.623818 3466.815178 1668.597889 25910.501761 22747.417108 20469.856883 18534.759907 16757.392100 14125.356104 11854.126087 8965.060225 6188.623818 3466.815178 1668.597889 25910.501761 22747.417108 20469.856883 18534.759907 16757.392100 14125.356104 11854.126087 8965.060225 6188.623818 3466.815178 1668.597889 25910.501761 22747.417108 20469.856883 18534.759907 16757.392100 14125.356104 11854.126087 8965.060225 6188.623818 3466.815178 1668.597889 25910.501761 22747.417108 20469.856883 18534.759907 16757.392100 14125.356104 11854.126087 8965.060225 6188.623818 3466.815178 1668.597889 25910.501761 22747.417107 20469.856883 18534.759907 16757.392100 14125.356104 11854.126087 8965.060225 6188.623818 3466.815178 1668.597889 25910.501761 22747.417107 20469.856882 18534.759907 16757.392100 14125.356104 11854.126087 8965.060225 6188.623818 3466.815178 1668.597889 25910.501760 22747.417107 20469.856882 18534.759906 16757.392100 14125.356103 11854.126087 8965.060225 6188.623818 3466.815178 1668.597888 25910.501759 22747.417105 20469.856880 18534.759904 16757.392098 14125.356102 11854.126085 8965.060224 6188.623817 3466.815178 1668.597888 25910.501753 22747.417098 20469.856872 18534.759897 16757.392091 14125.356096 11854.126081 8965.060221 6188.623815 3466.815176 1668.597888 25910.501734 22747.417073 20469.856845 18534.759871 16757.392067 14125.356077 11854.126066 8965.060210 6188.623808 3466.815172 1668.597885 25910.501669 22747.416988 20469.856754 18534.759782 16757.391987 14125.356011 11854.126015 8965.060173 6188.623783 3466.815158 1668.597878 25910.501449 22747.416708 20469.856453 18534.759490 16757.391725 14125.355796 11854.125848 8965.060054 6188.623703 3466.815110 1668.597852 25910.500738 22747.415809 20469.855492 18534.758560 16757.390890 14125.355112 11854.125320 8965.059675 6188.623451 3466.814962 1668.597773 25910.498505 22747.413019 20469.852524 18534.755695 16757.388325 14125.353014 11854.123699 8965.058515 6188.622680 3466.814509 1668.597531 25910.491736 22747.404661 20469.843674 18534.747176 16757.380715 14125.346797 11854.118904 8965.055088 6188.620403 3466.813177 1668.596819 25910.471919 22747.380513 20469.818228 18534.722751 16757.358942 14125.329036 11854.105217 8965.045315 6188.613920 3466.809398 1668.594802 25910.416007 22747.313329 20469.747807 18534.655347 16757.298990 14125.280189 11854.067610 8965.018486 6188.596146 3466.799075 1668.589293 25910.264222 22747.133688 20469.560549 18534.476631 16757.140370 14125.151092 11853.968280 8964.947673 6188.549288 3466.771964 1668.574838 25909.868497 22746.672951 20469.083074 18534.022266 16756.737916 14124.823802 11853.716541 8964.768291 6188.430710 3466.703637 1668.538451 25908.879762 22745.542081 20467.918286 18532.917043 16755.760788 14124.029527 11853.105585 8964.333004 6188.143205 3466.538682 1668.450740 25906.517828 22742.892395 20465.206573 18530.351183 16753.495968 14122.188482 11851.688657 8963.323203 6187.476596 3466.157939 1668.248700 25901.137877 22736.983253 20459.199147 18524.681600 16748.497589 14118.122541 11848.555484 8961.088501 6186.001700 3465.319582 1667.805005 25889.490231 22724.483019 20446.577174 18512.796359 16738.025781 14109.590607 11841.966883 8956.382403 6182.895114 3463.562838 1666.878461 25865.604370 22699.491649 20421.514645 18489.240008 16717.268380 14092.632258 11828.827712 8946.974167 6176.678647 3460.066123 1665.042459 25819.396012 22652.472160 20374.673085 18445.262275 16678.468226 14060.796552 11804.041205 8929.160044 6164.886649 3453.470000 1661.598555 25735.524250 22569.718899 20292.731822 18368.313622 16610.361127 14004.539177 11759.944624 8897.318074 6143.759801 3441.725511 1655.508633 25593.445594 22434.162526 20159.203795 18242.757299 16498.661077 13911.398952 11686.240820 8843.715867 6108.030136 3421.966197 1645.348708 25369.913864 22228.185773 19956.945735 18052.120168 16327.941672 13767.297237 11570.621888 8758.628167 6050.840156 3390.466530 1629.300572 25047.727126 21942.694033 19676.247947 17785.225920 16085.537313 13558.922692 11400.671788 8632.165838 5965.295666 3343.729257 1605.675354 24626.002835 21584.219911 19322.907235 17445.444751 15769.249915 13279.187036 11168.100756 8457.000054 5844.853317 3277.547001 1572.425647 24113.876111 21153.399512 18896.020904 17039.214007 15389.186005 12932.862568 10867.749395 8221.277023 5676.707950 3183.822483 1524.852412 23603.775478 20741.595042 18461.912915 16597.777628 14964.077282 12533.981209 10501.976975 7926.969862 5471.404190 3075.993254 1467.389204 23189.930891 20435.479710 18151.683189 16215.679218 14508.119787 12081.703788 10094.224777 7604.771395 5226.202225 2927.873375 1388.201754 22523.499246 19646.840147 17509.712407 15817.235663 14073.514498 11602.640304 9641.880157 7173.515365 4815.520666 2691.754707 1247.475660 23339.563458 20552.883542 17654.917399 15794.444720 13997.332762 11283.813498 9182.722794 6744.406574 4615.496513 2746.654837 1176.501885 20998.360071 19132.270452 16911.353845 14483.725234 12907.566006 10351.237840 8314.618632 6127.119527 4042.119139 1788.989539 665.928281 24322.081077 19947.986531 19277.369048 16756.827019 14592.870702 11583.554982 8892.926886 6254.246481 3806.060847 2084.147263 1746.902980 1178.939785 732.336378 474.974633 326.347533 238.545026 179.730693 132.373056 89.808807 45.973766 9.070874 -38.547758 -329.336672 -169.638216 643.850943 1260.345898 783.418787 499.713259 332.749646 235.341876 174.117545 130.172846 96.343553 62.120210 27.725932 71.650919 -12.932496 -476.231506 -528.019489 1434.464681 886.358164 558.643278 365.210087 252.942115 183.911009 135.847176 99.485488 69.901961 24.913115 -18.042501 23.622084 260.530376 -46.143345 1502.554860 902.575941 541.442239 327.935809 205.211473 132.253652 84.904408 50.380478 26.877941 16.242422 -9.145958 -117.829086 -77.360749 -78.799105 1588.366150 944.875515 556.364782 326.930421 196.303518 120.475333 73.826936 41.973749 16.174739 1.384403 16.030451 9.230397 24.100030 -5.664579 1639.957184 961.669135 551.795739 310.356635 174.201719 96.925400 51.168813 22.789462 3.160756 -14.705601 -23.693081 -28.701806 -8.083396 -13.902462 1683.027697 978.183737 552.342999 302.161573 162.301359 84.654948 40.250803 13.542486 -2.236038 -11.110514 -15.103912 -19.046449 -7.448470 -7.667519 1713.904447 989.530446 552.217377 296.024884 153.897256 76.469472 33.894838 9.319394 -5.517981 -13.638893 -15.856534 -15.637453 -6.987275 -6.404524 1734.387187 996.378821 551.388999 291.494609 148.322370 71.516437 30.625015 8.408196 -4.162121 -11.147869 -13.817110 -13.604695 -7.602211 -5.919191 1744.216081 997.462167 548.294473 287.013621 144.095670 68.477935 29.226170 8.798789 -2.000292 -7.539086 -9.669668 -9.510099 -5.735816 -4.362571 1738.916196 987.950147 538.525802 279.189238 138.729786 65.400145 28.188350 9.499145 0.060289 -4.569418 -6.369981 -6.344343 -4.076753 -3.082029 1716.509732 965.537857 519.173792 264.971889 130.000912 60.835652 26.465977 9.737069 1.632992 -2.200457 -3.737432 -3.885990 -2.640447 -1.994074 1631.186762 894.675094 474.323907 237.494826 114.308735 52.936250 23.127791 8.985983 2.358413 -0.676087 -1.908198 -2.139092 -1.526688 -1.166736 1405.745191 701.305723 348.644768 171.753879 81.656914 37.580414 16.502287 6.641448 2.104536 0.067110 -0.766919 -0.976642 -0.719523 -0.587301 1522.884489 659.512778 300.881029 138.799342 63.489886 28.569362 12.471521 5.150935 1.873060 0.437290 -0.153430 -0.343550 -0.291974 -0.346682
</DataArray>
<DataArray type="Float64" Name="Velocity" NumberOfComponents="3" format="ascii">