<VTKFile type="PolyData">
<PolyData>
<Piece NumberOfPoints="1945" NumberOfVerts="1945" NumberOfLines="0" NumberOfStrips="0" NumberOfPolys="0">
<PointData>
<DataArray type="Float64" Name="Pressure" format="ascii">
 76522.449157 73964.184639 84025.635699 73616.157789 72070.961088 64641.177346 65609.034728 62228.905361 66344.537576 64161.950654 58718.285052 56421.201454 55460.302718 54679.099592 53919.361124 53948.498270 51871.335850 51929.154840 50150.666247 50497.441735 48330.975843 48548.557865 46481.983358 46761.328719 44593.304749 44794.004302 42626.118970 42614.630736 40697.904316 40615.391169 38804.449953 38516.561416 36950.942829 36519.247751 35120.398300 34519.804182 33313.100381 32506.337779 31543.294457 30485.143685 29833.437660 28445.695722 28214.694134 26406.167552 26714.451912 24393.229470 25359.513087 22459.641075 24168.051311 20663.934133 23142.933515 19042.327359 22278.552722 17632.866990 21569.667383 16401.319123 20995.486151 15375.841237 20538.728248 14538.494637 20180.805082 13866.244238 19903.994196 13334.106195 19692.514461 12917.912984 19532.908312 12595.958961 19413.991484 12349.601485 19326.621090 12163.293771 19263.403952 12024.250712 19218.418310 11922.023992 19186.972704 11848.110932 19165.401868 11795.636004 19150.891501 11759.099972 19141.324289 11734.174628 19135.143045 11717.522809 19131.229955 11706.632132 19128.802488 11699.659566 19127.326561 11695.289120 19126.446762 11692.606458 19125.932399 11690.993301 19125.637329 11690.042522 19125.471129 11689.492809 19125.379090 11689.180435 19125.328767 11689.004914 19125.301178 11688.905263 19125.285126 11688.843810 19125.273483 11688.794873 19125.260531 11688.735977 19125.239595 11688.639440 19125.200195 11688.462063 19125.123837 11688.130359 19124.977229 11687.518226 19124.701304 11686.413561 19124.193936 11684.470346 19123.283790 11681.144036 19121.692818 11675.611694 19118.985815 11666.685341 19114.508115 11652.738506 19107.317572 11631.681493 19096.125082 11601.037774 19079.268617 11558.186018 19054.757281 11500.831874 19020.430376 11427.741970 18974.274439 11339.691470 18914.923920 11240.582759 18842.331269 11138.376750 18758.495953 11044.591947 18668.224044 10975.394131 18579.273774 10944.436847 18503.567695 10970.021368 18451.840148 11070.596821 18431.992070 11247.097040 18456.015124 11501.891701 18534.578792 11829.592240 18672.004884 12215.314393 18869.254886 12645.459425 19119.362952 13084.932082 19411.863045 13503.399828 19736.190924 13913.099158 20083.764673 14299.082884 20445.500035 14623.414395 20823.821929 14918.484741 21215.800802 15146.073584 21607.121080 15309.087273 21956.450046 15421.288809 22266.682926 15389.203384 22569.131290 15478.170930 22840.714801 15458.555484 23155.074659 15524.727139 23494.855601 15752.173108 23858.230778 15520.263878 24783.398125 16196.176095 26110.503012 16650.172800 26794.835087 17912.421104 24800.560970 16019.292198 23586.252129 9766.461667 31803.165050 23594.132583 63113.505912 62640.574464 56256.146639 50861.086745 48099.354864 45546.446542 43438.992928 41268.870096 38978.987425 36721.196213 34628.083722 32749.471372 31079.122503 29542.865592 28038.564932 26407.641058 24462.016455 22033.204211 18960.944019 15038.331331 11379.907886 8639.578047 5842.048217 -2664.096030 -5508.822866 -4785.564977 -3612.056547 -2543.191742 -1673.646833 -1039.514229 -614.218823 -347.384638 -188.942949 -99.188285 -50.402492 -24.850347 -11.911638 -5.560668 -2.532062 -1.126224 -0.489935 -0.208703 -0.087152 -0.035712 -0.014374 -0.005687 -0.002214 -0.000849 -0.000320 -0.000119 -0.000043 59978.897040 62865.609625 54268.152819 50742.254823 49516.728245 47063.391282 46169.754156 44521.450131 42365.045620 40053.840157 37460.619992 34679.621416 32023.079526 29876.443668 28276.330855 27564.690780 26753.588003 25605.717171 23607.544640 19838.355845 13503.213135 4294.136998 2547.644533 -5623.880684 -6307.231478 -4414.058512 -3556.002912 -2565.075363 -1716.838997 -1081.948752 -648.021233 -371.315464 -204.550822 -108.742309 -55.953068 -27.933522 -13.557648 -6.408567 -2.954807 -1.330748 -0.586159 -0.252811 -0.106883 -0.044340 -0.018066 -0.007236 -0.002851 -0.001106 -0.000422 -0.000158 -0.000053 13965.980558 14027.567381 12761.466778 9899.497352 9196.891382 7623.745070 6032.838975 4885.029241 2900.666616 -34.585575 2388.840059 3530.844184 1202.828991 453.116744 85.766384 -58.312176 -90.129060 -77.388414 -54.053215 -33.569038 -19.229281 -10.358721 -5.309979 -2.610667 -1.238035 -0.568691 -0.253873 -0.110435 -0.046913 -0.019498 -0.007940 -0.003173 -0.001246 -0.000481 -0.000183 -0.000068 -0.000025 -0.000009 -0.000003 -0.000001 -0.000000 -0.000000 -0.000000 -0.000000 -0.000000 -0.000000 -0.000000 0.000000 -0.000000 -0.000000 0.000000 23699.079080 24031.046774 21945.969176 18944.198610 16405.623233 13715.722733 11018.726496 8396.077260 5625.206581 2795.203492 1973.119310 2046.874859 1193.057152 509.105278 131.540673 -31.681004 -77.867358 -73.305620 -53.701314 -34.470402 -20.270068 -11.166641 -5.839620 -2.924153 -1.410639 -0.658562 -0.298580 -0.131832 -0.056816 -0.023946 -0.009886 -0.004004 -0.001592 -0.000623 -0.000240 -0.000091 -0.000034 -0.000013 -0.000005 -0.000002 -0.000001 -0.000000 -0.000000 -0.000000 -0.000000 -0.000000 -0.000000 0.000000 0.000000 -0.000000 -0.000000 -0.000018 -0.000008 -0.000017 -0.000008 -0.000010 -0.000006 -0.000003 -0.000003 -0.000001 -0.000001 -0.000000 -0.000000 -0.000000 -0.000000 -0.000000 -0.000000 -0.000000 -0.000000 -0.000000 -0.000000 -0.000000 -0.000000 -0.000000 -0.000000 -0.000000 -0.000000 -0.000000 -0.000000 -0.000000 -0.000000 -0.000000 -0.000000 -0.000000 -0.000000 -0.000000 -0.000000 -0.000000 -0.000000 -0.000000 -0.000000 -0.000000 -0.000000 -0.000000 -0.000000 -0.000000 -0.000000 0.000000 -0.000000 0.000000 -0.000000 0.000000 0.000000 0.000000 0.000000 0.000000 0.000000 0.000000 0.000000 0.000000 0.000000 0.000000 0.000000 0.000000 0.000000 0.000000 0.000000 0.000000 0.000000 0.000000 0.000000 0.000000 0.000000 0.000000 0.000000 0.000000 0.000000 0.000000 0.000000 0.000000 0.000000 0.000000 0.000000 0.000000 0.000000 0.000000 0.000000 0.000000 0.000000 0.000000 0.000000 0.000000 0.000000 0.000000 0.000000 0.000000 0.000000 0.000000 0.000000 0.000000 0.000000 0.000000 0.000000 0.000000 0.000000 0.000000 0.000000 0.000000 0.000000 0.000000 0.000000 0.000000 0.000000 0.000000 0.000000 0.000000 0.000000 0.000000 0.000000 0.000000 0.000000 0.000000 0.000000 0.000000 0.000000 0.000000 0.000000 0.000000 0.000000 0.000000 0.000000 0.000000 0.000000 0.000000 0.000000 0.000000 0.000000 0.000000 0.000000 0.000000 0.000000 0.000000 0.000000 0.000000 0.000000 0.000000 0.000000 0.000000 0.000000 0.000000 0.000000 0.000000 0.000000 0.000000 0.000000 0.000000 0.000000 0.000000 0.000000 0.000000 0.000000 0.000000 0.000000 0.000000 0.000000 0.000000 0.000000 0.000000 0.000000 0.000000 0.000000 0.000000 0.000000 0.000000 0.000000 0.000000 0.000000 0.000000 0.000000 0.000000 0.000000 0.000000 0.000000 0.000000 0.000000 0.000000 0.000000 0.000000 0.000000 0.000000 0.000000 0.000000 0.000000 0.000000 0.000000 0.000000 0.000000 0.000000 0.000000 0.000000 0.000000 0.000000 0.000000 0.000000 0.000000 0.000000 0.000000 0.000000 0.000000 0.000000 0.000000 68592.730079 62685.583518 58683.293971 55962.041798 53815.505635 51946.787669 50494.632543 49323.995507 47805.291680 46277.864665 44933.313639 62607.589666 66237.410779 61461.181618 60671.761104 55899.013358 54703.302020 52651.865070 51013.038762 49434.662839 47674.317480 45809.624455 61319.596501 62391.339861 59204.220505 56341.541694 54920.371590 52607.773253 51268.993339 49244.705721 48060.607775 46124.663862 44633.032896 57023.633824 62358.064955 58301.283173 58172.206264 53729.914560 53302.333806 51115.293643 49289.687277 47889.315647 45286.180467 43828.949722 57362.153145 58871.914488 56695.813927 54223.885121 53097.957783 51705.910096 48624.901702 48659.238620 46778.972921 44976.220718 43576.183438 55728.908753 57802.462645 56147.585563 54679.262990 51763.715730 49569.723114 48611.435895 46809.475979 44809.993914 43451.906815 41996.818807 54181.074517 54860.782325 53006.822557 51464.463282 49476.132439 49251.059096 47116.465487 45692.929558 44544.733344 42097.435979 40275.120264 52746.223011 53617.070856 52241.190666 50571.601397 47907.237284 46533.085556 44521.151637 43511.869406 41957.966438 40379.939170 39722.599344 50348.798894 50479.716287 49135.601997 47784.280921 45775.328119 45155.157526 43166.463483 42016.066683 40853.457422 38773.315484 36789.124501 48616.911024 48699.767715 47466.806489 45933.809184 43252.259019 42305.405199 40930.725671 39652.506308 37305.897440 35271.457473 35201.437913 46336.302126 46158.730505 44940.241388 43171.794478 40839.223223 40541.102400 38078.321882 35950.883861 36113.136100 35915.559669 33505.345175 43985.933824 43595.131929 42310.365067 40637.405481 38776.242106 37325.395895 34844.330867 35476.640397 33612.674999 27505.049678 26475.402039 41861.724616 41396.215591 39977.686556 38303.983749 35859.968128 33978.314990 33745.623433 31046.216988 26211.813826 30411.562340 31037.473002 39382.923732 38623.318413 37329.207109 35737.140378 32738.950771 32415.164209 30509.227067 24608.870400 29945.707220 24826.456115 10314.346539 37157.019657 36283.465533 35138.508011 33123.838407 30002.997534 30669.328257 25074.324923 25348.021262 26635.598686 8933.327722 35882.520821 34907.282799 33836.640856 32727.453252 30392.806363 27716.033879 27948.943707 21076.578578 27176.696186 14181.140392 24883.159261 8129.874449 32679.813139 31421.329233 30354.906747 27936.921793 25552.363855 24829.730816 19428.751267 24803.522272 5645.601369 30647.855786 2739.059399 30511.307330 29136.080045 28051.440537 25641.907666 23292.536080 21982.733571 18347.483719 19536.567740 8919.746866 17512.064354 19149.826957 28372.772788 26910.738837 25756.968283 23436.486147 21080.983477 19616.842113 17008.372853 14995.530176 14240.784295 6391.123894 17211.925289 26277.052607 24783.360741 23554.683929 21327.896571 18960.467318 17532.008324 15390.303343 12032.196055 13923.948959 2925.223108 13929.807346 24231.973884 22747.590797 21438.633911 19303.859635 16907.300995 15605.713026 13612.348475 10742.998898 10831.114123 3382.298093 10262.736365 22277.924002 20829.821539 19411.182353 17397.085463 14951.889585 13797.672463 11711.545132 9642.666350 8684.436068 3565.050604 6314.884937 20448.993493 19074.195077 17511.075928 15628.787448 13142.629276 12107.338750 9989.309278 8282.762421 7039.355002 3365.831568 3999.057668 18729.834647 17478.264675 15783.029710 14013.945765 11503.872002 10551.434842 8497.273165 6979.179216 5690.945386 2861.518436 2749.929121 17221.038642 16056.862831 14251.709168 12582.483629 10066.748881 9175.901703 7204.758622 5831.573075 4639.477616 2327.945014 1998.829955 15912.828093 14826.860604 12928.479409 11352.144299 8846.161533 8008.117483 6121.119639 4864.270500 3813.736768 1868.064426 1523.781196 14801.621798 13785.042354 11811.339484 10318.709264 7834.488954 7048.820018 5246.507615 4089.188555 3176.551127 1498.895047 1207.768131 13877.025775 12921.119419 10889.141216 9470.189367 7014.543067 6279.743830 4557.794397 3487.450171 2696.132448 1217.271580 992.190007 13122.631791 12218.160582 10141.852468 8786.439117 6361.733038 5673.676951 4023.689606 3027.632317 2337.631804 1007.492951 842.636032 12516.947193 11654.848573 9544.829818 8242.559274 5848.099715 5201.580795 3613.700768 2679.276500 2070.970867 852.591928 737.413118 12037.158674 11209.334404 9073.676463 7814.505159 5447.265097 4836.007461 3299.960226 2415.582269 1872.075618 738.175385 662.197967 11661.509808 10860.907998 8705.587082 7480.293804 5136.132312 4553.591169 3059.506631 2214.988944 1722.425073 652.825241 607.336967 11370.497523 10591.053685 8420.514995 7221.021817 4895.582678 4335.693302 2874.785930 2061.530436 1608.763502 588.330982 566.491690 11147.474880 10384.062654 8201.708129 7021.258738 4710.451921 4167.919050 2732.694055 1943.638472 1521.784038 538.999085 535.544391 10978.576258 10226.937144 8035.425848 6868.607151 4568.892409 4039.336297 2623.620376 1853.068190 1455.041951 500.990870 511.846571 10852.386172 10109.079796 7910.525078 6753.167780 4461.644248 3941.588668 2540.437778 1783.857356 1404.004405 471.705773 493.663987 10759.548535 10021.895898 7817.991045 6667.003867 4381.389596 3868.158992 2477.698858 1731.524199 1365.341074 449.304141 479.800519 10692.416769 9958.419060 7750.515626 6603.688320 4322.246880 3813.834248 2431.088069 1692.544933 1336.472947 432.397694 469.368090 10644.778843 9913.014655 7702.178476 6557.985215 4279.431358 3774.363249 2397.085987 1664.044837 1315.309788 419.868492 461.658385 10611.645459 9881.155816 7668.212453 6525.635592 4249.041108 3746.256281 2372.785985 1643.638101 1300.116812 410.779453 456.081266 10589.077450 9859.251868 7644.826901 6503.210460 4227.920076 3726.667909 2355.797837 1629.350455 1289.453364 404.337714 452.139739 10574.031901 9844.506754 7629.062926 6487.998226 4213.559290 3713.318266 2344.189748 1619.576837 1282.142480 399.881639 449.420884 10564.216500 9834.792193 7618.663259 6477.904344 4204.010743 3704.425043 2336.439828 1613.046631 1277.247798 396.874014 447.590900 10557.950484 9828.529188 7611.949775 6471.353793 4197.802820 3698.634169 2331.384418 1608.784751 1274.047483 394.893103 446.388878 10554.035443 9824.577732 7607.708605 6467.195635 4193.855836 3694.947713 2328.161507 1606.066974 1272.003301 393.619452 445.618035 10551.640548 9822.137348 7605.085917 6464.613012 4191.400904 3692.652506 2326.152570 1604.372717 1270.727064 392.819545 445.135112 10550.205514 9820.661349 7603.497608 6463.042715 4189.906374 3691.254084 2324.927424 1603.339497 1269.947711 392.328443 444.839319 10549.362478 9819.786316 7602.554772 6462.107158 4189.014964 3690.419462 2324.195678 1602.722456 1269.481701 392.033354 444.661984 10548.875890 9819.276716 7602.004962 6461.559748 4188.492874 3689.930399 2323.766661 1602.360774 1269.208239 391.859411 444.557688 10548.598102 9818.983135 7601.687789 6461.242961 4188.190503 3689.647090 2323.518068 1602.151298 1269.049710 391.758145 444.497130 10548.437553 9818.811788 7601.502415 6461.057272 4188.013210 3689.481035 2323.372419 1602.028712 1268.956903 391.698609 444.461679 10548.336311 9818.702554 7601.384099 6460.938485 4187.899911 3689.375127 2323.279725 1601.950936 1268.898093 391.660713 444.439319 10548.253782 9818.612756 7601.286815 6460.840802 4187.807060 3689.288723 2323.204478 1601.888176 1268.850838 391.630144 444.421574 10548.153639 9818.503910 7601.169056 6460.722881 4187.695451 3689.185364 2323.114944 1601.813929 1268.795239 391.594139 444.400998 10547.991044 9818.328729 7600.979880 6460.534119 4187.517253 3689.020716 2322.972678 1601.696207 1268.707370 391.537325 444.368709 10547.697136 9818.015483 7600.642156 6460.198241 4187.200531 3688.728209 2322.720049 1601.487100 1268.551484 391.436790 444.311496 10547.157420 9817.446662 7600.029750 6459.591117 4186.628372 3688.199691 2322.263464 1601.108723 1268.269545 391.255485 444.207922 10546.180385 9816.428778 7598.935303 6458.509745 4185.609762 3687.258445 2321.449982 1600.433594 1267.766632 390.933128 444.022893 10544.452749 9814.650578 7597.025741 6456.629976 4183.839994 3685.622534 2320.035569 1599.257902 1266.891100 390.374003 443.700292 10541.478918 9811.628601 7593.784438 6453.452552 4180.850298 3682.858227 2317.644843 1597.267480 1265.409406 389.431821 443.153638 10536.505529 9806.642766 7588.442939 6448.241245 4175.950426 3678.327068 2313.725513 1593.999064 1262.977597 387.893228 442.255576 10528.438588 9798.671399 7579.912300 6439.964200 4168.174834 3671.136691 2307.506535 1588.804386 1259.115220 385.464029 440.828449 10515.771623 9786.345229 7566.734761 6427.260129 4156.253117 3660.114911 2297.977375 1580.831743 1253.192744 381.765699 438.640281 10496.558274 9767.952382 7547.089636 6408.463560 4138.637022 3643.837779 2283.915706 1569.048363 1244.450096 376.353745 435.413063 10468.479532 9741.538113 7518.899634 6381.734018 4113.626195 3620.751528 2263.999123 1552.334270 1232.069425 368.772618 430.852446 10429.067987 9705.147095 7480.088244 6345.335699 4079.635838 3589.429483 2237.037403 1529.679744 1215.326085 358.661522 424.708305 10376.149871 9657.244689 7429.026381 6298.096857 4035.632188 3548.988832 2202.347416 1500.506893 1193.832842 345.918189 416.872102 10308.544702 9597.327432 7365.177988 6240.040601 3981.721020 3499.651235 2160.255541 1465.104752 1167.868352 330.910275 407.507241 10226.984783 9526.651398 7289.882220 6173.114994 3919.815614 3443.369210 2112.651899 1425.114387 1138.740563 314.696028 397.191949 10135.079875 9448.857773 7207.032271 6101.789647 3854.202563 3384.361306 2063.449505 1383.934514 1109.084641 299.182240 387.032943 10040.363326 9370.654803 7123.664247 6033.298246 3791.711710 3329.302042 2018.738651 1346.863658 1082.951207 287.120294 378.689005 9954.539760 9301.828229 7050.468844 5977.771082 3741.444269 3286.929378 1986.408457 1320.785917 1065.535995 281.841954 374.238175 9890.817795 9251.094981 6998.629304 5946.799539 3713.937999 3267.026568 1975.105416 1313.270171 1062.462243 286.689956 375.847096 9869.291736 9233.020568 6979.829364 5950.493124 3719.251554 3278.812220 1992.617868 1331.102886 1078.637283 304.194420 385.262363 9899.524226 9260.478797 7009.443143 5997.390009 3765.110857 3329.083760 2044.120655 1378.599074 1116.898522 335.157177 403.215504 9985.356395 9331.380202 7096.635500 6092.677334 3855.698681 3420.518096 2130.680635 1456.262307 1176.953631 377.980001 428.909091 10144.227176 9456.620612 7245.957140 6236.334300 3990.958962 3550.727590 2248.181920 1559.915897 1254.997553 428.660684 459.853520 10382.695483 9647.785506 7456.529010 6424.561213 4167.558653 3713.876966 2388.529686 1680.933407 1343.967012 481.492081 492.269747 10689.063864 9886.722764 7715.521266 6648.516932 4375.327621 3900.207947 2542.400120 1808.971108 1435.045518 530.232289 521.910399 11039.839002 10161.931465 8024.486842 6901.929304 4602.403434 4095.976507 2698.675620 1934.519673 1520.674954 569.966689 545.032559 11416.755339 10466.204952 8367.897440 7170.318887 4842.361032 4292.840768 2847.123769 2048.909605 1596.423345 599.197191 559.552463 11815.416838 10787.631943 8716.881462 7436.619510 5082.835995 4485.034251 2985.702534 2147.014010 1660.475473 620.202779 566.017773 12210.329759 11125.086004 9060.229204 7698.657786 5314.450133 4661.147614 3116.796105 2231.240659 1713.918667 637.456445 567.451711 12572.049385 11463.279572 9387.360669 7947.984097 5537.971222 4816.357457 3239.926754 2308.477068 1761.817626 656.297964 568.141450 12925.215202 11797.514431 9690.398791 8172.931477 5748.066694 4958.001252 3354.911894 2382.309398 1809.768080 681.257753 572.110257 13246.735636 12110.407653 9974.892314 8386.005333 5938.856872 5094.840442 3469.755508 2455.530656 1860.951328 714.097499 581.582761 13490.826642 12359.141272 10199.490598 8574.836628 6102.812019 5224.670122 3595.647672 2538.754145 1921.068685 755.689008 596.863778 13754.812319 12658.874301 10438.937659 8774.696605 6264.069648 5341.591864 3716.899259 2624.548607 1988.154027 805.478013 618.198201 13898.946272 12846.215683 10593.668954 8948.312658 6456.798065 5498.880433 3866.068449 2725.676506 2061.754330 860.268833 646.373675 13995.070968 13049.267144 10745.663134 9080.253689 6603.454535 5654.206703 4053.498391 2869.008697 2151.418426 910.354349 672.218223 14162.066773 13376.200594 11028.530943 9349.573965 6815.791089 5796.047041 4192.194904 3006.161597 2276.857132 986.154029 701.812133 14000.885821 13217.244073 10925.494316 9485.765488 7117.043364 6173.856117 4507.703519 3195.710182 2388.601237 1058.365227 755.165329 14329.594797 13878.464760 11538.221566 9838.969747 7181.479513 6237.255562 4687.188816 3429.529825 2512.936511 1080.678757 785.151377 14317.417527 13757.396045 11340.469699 10007.284814 7781.638183 6819.891635 4962.897399 3734.335491 2872.560202 1258.505187 831.798059 14398.403254 14116.814902 11842.781549 10461.929099 7794.846296 7020.768939 5425.952236 3762.756183 2756.471818 1243.441508 841.527084 14794.475865 14608.062293 12194.088235 10788.791561 8515.443918 7112.190205 5591.785829 4489.627352 3230.589156 1487.382996 999.420540 14812.562500 14332.781558 12393.718318 10779.078289 8703.192181 8285.404319 5601.376770 4652.077339 3329.870260 1215.418891 1070.247289 15469.433184 15754.994835 12361.247200 12463.385316 8531.124793 7796.725109 6627.890788 4432.865199 3766.274630 1725.147714 1061.354563 14453.604791 15032.227304 12599.119269 11020.640185 9840.434858 7948.434053 6599.182436 4696.885343 4015.249565 1360.483508 1331.665619 17866.509732 18436.974394 14184.255268 13614.624499 10703.694034 9618.703475 7376.146162 6147.609435 3769.028132 2428.014678 1250.377036 10209.666573 14218.419044 10735.479783 9801.651727 7889.365106 6951.503726 5620.381856 4876.993770 3411.732769 2967.950150 1361.738693 43174.879591 41249.479485 39168.025006 37036.998212 35000.917434 32745.939916 30636.186003 28679.943416 26056.450149 23156.123034 20157.993880 14843.383762 10056.457274 4735.903378 43343.833533 41211.599578 39174.424760 37117.055616 35152.918007 33185.701642 31085.446506 28861.582251 25770.349017 22046.474461 18844.408632 11407.536210 5516.137119 4692.049485 42616.689464 40852.473154 38653.367282 36011.215625 33352.249672 30847.380905 28671.351399 26602.640326 24188.990889 20584.457881 17761.741823 14532.585032 6511.005043 3093.418353 41688.123432 40277.435447 38560.304369 36508.836852 34204.335844 31488.303014 28688.041755 25568.123007 22581.220039 18996.821693 13692.453741 10802.977720 6419.147797 2100.430835 41098.359357 39372.423799 37073.081014 34624.839232 32205.706373 29686.576170 27420.635271 24800.147300 21514.337059 18561.412432 14452.184284 9983.170484 4981.007601 1917.524469 40301.981143 38932.247318 36871.997791 34418.827132 31723.065409 28800.864039 26029.545159 23334.217837 19999.933413 16141.466931 12330.797126 9200.360690 4853.819332 1674.429504 38242.185466 36661.456077 34748.169615 32503.067438 30088.877081 27565.834225 25010.697989 22239.786871 19215.461820 15662.226748 11407.286372 7916.359771 3898.687230 1282.224358 38166.585894 36481.319491 34253.433268 31571.912499 28876.938030 26254.979431 23810.454324 21087.646935 17880.107700 14440.421337 10671.035700 7501.487758 3716.317419 1191.657932 34494.195341 33148.756256 31569.670449 29537.247274 27343.739679 24981.305144 22654.792450 20131.517090 17073.669293 13559.608111 9752.543772 6716.019199 3282.629563 1001.330659 34759.127084 33287.772333 30722.738323 27837.017742 25387.090632 23206.698606 21067.609181 18624.791436 15715.233803 12469.012820 8953.662817 6117.504956 2988.950189 900.742679 29395.104241 27222.330403 26458.682102 25391.570196 23589.759473 21440.599020 19387.790256 17124.842148 14353.453120 11271.952116 8037.810577 5470.386919 2698.764154 801.473776 30393.198861 30835.595204 26426.095906 21839.588988 19453.868527 18023.860493 16461.304230 14563.829142 12214.377987 9541.454873 6714.914698 4509.911179 2226.749423 660.432026 21542.739075 14329.486344 17935.810487 21132.912921 19781.512394 17211.025308 14927.018368 12791.827435 10208.033186 7866.838702 5521.663543 3844.004116 2005.169359 577.416828 28673.682780 24651.885113 18458.026750 10255.926837 6912.911043 6879.531303 7308.026559 6936.383369 5851.058871 4800.921646 3384.148929 2404.553881 951.747465 370.125559 22809.395435 22406.316496 25765.230681 24219.239795 22152.372930 17098.804724 10172.768725 6131.700152 4073.885151 2730.171964 1737.477542 1102.367907 517.416263 504.386326
</DataArray>
<DataArray type="Float64" Name="Velocity" NumberOfComponents="3" format="ascii">