<VTKFile type="PolyData">
<PolyData>
<Piece NumberOfPoints="1945" NumberOfVerts="1945" NumberOfLines="0" NumberOfStrips="0" NumberOfPolys="0">
<PointData>
<DataArray type="Float64" Name="Pressure" format="ascii">
 51878.463530 51428.307743 66259.759268 60604.874374 68413.185373 65710.782170 53906.796679 52318.779570 51100.811411 49929.928591 52717.309913 59141.164922 51441.956126 53979.655776 52364.006255 55971.359047 52082.952897 51370.428502 49392.183879 48664.139868 51084.578039 52697.395453 53153.596598 51703.590025 48966.529922 47422.914431 53169.443534 54512.559986 47885.083592 47315.281522 41569.788066 40769.290923 41699.928927 40206.999337 36855.996161 35815.144016 37665.640059 39676.365144 35611.990920 37452.204752 33763.480516 33428.296037 33325.073595 31926.923880 32191.654733 30398.604262 32027.247822 31239.514216 30692.177599 30600.138814 29201.262156 29606.758491 27662.210537 28603.726795 26373.293850 27439.559903 25288.697917 25411.410904 24256.134935 23292.357990 23313.998423 21501.173909 22598.513116 20415.012832 22057.178547 19727.942491 21563.114932 19577.231395 20875.503109 19516.536380 19939.640721 19323.404365 18836.175341 18870.698032 17664.366948 18304.298949 16462.262450 17691.280413 15256.509412 16830.692222 14021.213156 15626.144706 12759.473944 14036.501978 11492.979178 12127.465942 10294.026148 10044.139745 9231.339013 7950.026101 8347.379255 6013.784184 7656.514375 4356.524812 7150.221324 3032.893611 6798.999634 1935.544899 6555.162749 1222.595874 6437.292125 780.171748 6416.586211 489.085979 6482.537249 333.130922 6633.139759 291.180187 6866.335524 349.371631 7175.986461 507.784643 7548.937241 764.459929 7968.188226 1114.680711 8416.635559 1553.174009 8876.221091 2069.674709 9328.731378 2647.753559 9758.126139 3265.407055 10152.655090 3905.058916 10502.695467 4538.444167 10807.250714 5164.011988 11074.666941 5793.921039 11310.312928 6372.388021 11509.084610 6866.574406 11684.422500 7303.107193 11844.586562 7681.591348 11995.765242 8005.956258 12142.139398 8277.553613 12289.035151 8510.080153 12438.424070 8700.331074 12586.634712 8840.344282 12736.215357 8985.267969 12901.179133 9167.100373 13085.507772 9383.252584 13302.137935 9638.944546 13557.193907 9913.222297 13838.013871 10192.491288 14153.165787 10512.181904 14500.141429 10818.585185 14870.062711 11231.730276 15257.475499 11441.385138 15642.428099 11639.483237 16008.498126 11717.513734 16355.993848 11818.103816 16676.371139 11814.558453 16972.168240 11806.678825 17255.675101 11911.611221 17504.325348 11741.521494 17866.009951 12283.237171 18139.400507 12173.794491 18466.063234 12433.547072 19121.133675 12447.919831 20201.718948 14174.347735 20348.394030 13990.439083 20110.366812 12945.492940 19489.904884 13942.477728 16744.286901 9125.924873 21680.797502 16272.856425 17343.940197 13252.260804 15215.781839 4048.440709 28816.470798 22369.007456 48937.777565 45324.719846 42894.645340 44579.383448 39029.371463 32356.643094 29463.312831 26015.265857 22926.021525 20107.588586 17416.127143 14372.819909 11457.000980 8927.637262 6169.909309 3413.241681 3553.786890 8296.440874 -739.037985 -5423.672002 -1412.389086 -3347.538849 -8310.456105 -7166.201810 -5613.144575 -4519.149026 -3682.719332 -2998.634121 -2422.146548 -1931.086218 -1514.142433 -1164.633674 -877.219869 -646.308957 -465.507554 -327.710818 -225.523852 -151.771795 -99.933831 -64.420514 -40.683254 -25.187534 -15.297922 -9.121115 -5.342102 -3.075274 -1.740868 -0.969106 -0.529664 -0.282280 -0.145667 52825.891777 47453.911746 49791.094054 52838.724543 43323.815005 36100.683718 37270.496754 33393.457770 31623.197333 29674.710212 28213.652615 23786.164749 19650.926771 16528.361551 11585.464232 4560.212165 564.912536 14555.165438 -10195.739020 -11787.841089 525.233110 -4727.113021 -10830.624269 -7489.553058 -5572.609137 -4553.381867 -3714.947395 -3023.269959 -2441.436587 -1947.267083 -1528.452328 -1177.578680 -888.899707 -656.649360 -474.407793 -335.125257 -231.492443 -156.414993 -103.428042 -66.967934 -42.485375 -26.426682 -16.127424 -9.662520 -5.687118 -3.290205 -1.871882 -1.047251 -0.575025 -0.306303 -0.147307 11381.509607 12520.175753 10789.846286 8155.685501 7555.838058 4685.233838 4564.327993 3271.006546 -410.795123 -1350.895136 6068.726404 4855.167813 1807.355298 762.112047 221.987879 -2.438373 -65.919223 -63.882195 -44.399926 -26.548482 -15.001702 -8.869320 -6.027068 -4.747246 -4.023002 -3.411616 -2.792095 -2.180052 -1.622895 -1.155471 -0.789999 -0.520712 -0.332039 -0.205453 -0.123676 -0.072589 -0.041619 -0.023348 -0.012834 -0.006921 -0.003666 -0.001909 -0.000978 -0.000493 -0.000245 -0.000120 -0.000058 -0.000028 -0.000013 -0.000006 -0.000003 22483.813336 21778.553788 19783.580945 17046.648285 14788.879403 11648.135880 9148.624443 6420.799113 3023.910000 2327.824487 3716.040819 3076.100526 1822.121942 840.714323 286.456946 35.480323 -48.139134 -57.633382 -43.429767 -27.354034 -16.015435 -9.588314 -6.415188 -4.911268 -4.073026 -3.420108 -2.794885 -2.189213 -1.638820 -1.174666 -0.808935 -0.537146 -0.345062 -0.215081 -0.130410 -0.077086 -0.044506 -0.025139 -0.013912 -0.007552 -0.004026 -0.002110 -0.001088 -0.000552 -0.000276 -0.000136 -0.000066 -0.000032 -0.000015 -0.000007 -0.000003 -0.078854 -0.051382 -0.071896 -0.047892 -0.045418 -0.034744 -0.021572 -0.020781 -0.010980 -0.011244 -0.005643 -0.005897 -0.002892 -0.003044 -0.001471 -0.001554 -0.000742 -0.000785 -0.000371 -0.000394 -0.000184 -0.000196 -0.000091 -0.000096 -0.000044 -0.000047 -0.000021 -0.000023 -0.000010 -0.000011 -0.000005 -0.000005 -0.000002 -0.000002 -0.000001 -0.000001 -0.000001 -0.000001 -0.000000 -0.000000 -0.000000 -0.000000 -0.000000 -0.000000 -0.000000 -0.000000 -0.000000 -0.000000 -0.000000 -0.000000 -0.000000 -0.000000 -0.000000 -0.000000 -0.000000 -0.000000 -0.000000 -0.000000 -0.000000 -0.000000 0.000000 0.000000 0.000000 0.000000 0.000000 0.000000 0.000000 0.000000 0.000000 0.000000 0.000000 0.000000 0.000000 0.000000 0.000000 0.000000 0.000000 0.000000 0.000000 0.000000 0.000000 0.000000 0.000000 0.000000 0.000000 0.000000 0.000000 0.000000 0.000000 0.000000 0.000000 0.000000 0.000000 0.000000 0.000000 0.000000 0.000000 0.000000 0.000000 0.000000 0.000000 0.000000 0.000000 0.000000 0.000000 0.000000 0.000000 0.000000 0.000000 0.000000 0.000000 0.000000 0.000000 0.000000 0.000000 0.000000 0.000000 0.000000 0.000000 0.000000 0.000000 0.000000 0.000000 0.000000 0.000000 0.000000 0.000000 0.000000 0.000000 0.000000 0.000000 0.000000 0.000000 0.000000 0.000000 0.000000 0.000000 0.000000 0.000000 0.000000 0.000000 0.000000 0.000000 0.000000 0.000000 0.000000 0.000000 0.000000 0.000000 0.000000 0.000000 0.000000 0.000000 0.000000 0.000000 0.000000 0.000000 0.000000 0.000000 0.000000 0.000000 0.000000 0.000000 0.000000 0.000000 0.000000 0.000000 0.000000 0.000000 0.000000 0.000000 0.000000 0.000000 0.000000 0.000000 0.000000 0.000000 0.000000 0.000000 0.000000 0.000000 0.000000 0.000000 0.000000 0.000000 0.000000 0.000000 0.000000 0.000000 0.000000 0.000000 0.000000 0.000000 0.000000 -0.000000 -0.000000 -0.000000 -0.000000 -0.000000 -0.000000 -0.000000 -0.000000 -0.000000 -0.000000 -0.000001 -0.000000 -0.000001 -0.000001 -0.000001 -0.000001 61505.914443 57087.855877 47847.382882 50135.860866 47022.215083 45288.858502 43708.977601 42451.646448 42860.050627 42858.438383 40802.037207 42663.954887 48543.929597 50905.387753 51643.291121 50092.821718 50128.864971 43840.444201 45305.147200 43134.588344 42322.921910 38336.943788 56956.581513 59345.312405 57843.600802 47875.746697 53715.642030 46387.537180 46015.712252 43438.650519 40370.361781 38319.833990 36243.218837 46882.826013 55543.726565 48624.342582 44365.047992 50351.165814 48331.987926 40834.125100 40834.677653 40130.215224 39568.442676 37663.456870 49754.560313 50447.175575 50446.058611 44498.246073 48051.906407 43339.404175 43379.967059 46867.538568 39922.903992 37917.060809 34722.094990 53036.091128 48841.800411 48429.272224 50862.908760 45981.625281 46434.899742 45560.002451 38278.980124 37250.328962 37493.915799 36843.375180 51108.568135 45079.364132 45704.370192 47863.445434 43725.966609 41614.929678 42665.059174 42587.421553 40443.711620 38511.133065 33792.473871 46836.283103 47916.501937 46561.702828 45788.257389 45855.708529 45132.012025 44650.900409 39432.841882 36725.151837 36626.346008 37408.334893 54043.083954 43580.318637 42195.517421 44268.114816 42640.132157 37117.219654 37942.333035 38817.925199 39568.858630 35045.228612 27842.449112 42108.262010 41421.965981 43808.487779 43002.521961 38927.986515 40224.243467 40859.151661 33070.737000 30679.015677 31347.406282 33217.344666 39996.013398 42022.689105 40748.180932 37906.965828 40048.856506 36043.051853 30027.058461 34024.454005 36263.540849 26040.513298 26992.087296 39683.768678 41770.754621 36160.009479 38202.279162 32844.399297 30730.032631 34931.932644 25236.223176 24315.219017 27405.694647 25437.674119 41702.433000 36305.064368 35518.515584 37619.313270 31858.784426 32168.995742 26479.368399 24672.187993 25995.252540 22433.888886 19119.019429 37927.459987 35279.214416 34989.157983 33145.836070 28535.296774 28461.327842 26932.566319 19998.397343 20573.440132 17394.687067 21028.108628 35545.324412 33513.440688 32433.588039 30537.112651 28313.871901 25010.977594 20715.902572 26527.851072 24245.649296 19444.059841 11440.321923 35530.532848 32633.295244 29182.177807 29575.106940 24844.469247 22213.789612 20318.426409 18739.974740 15849.450744 20736.958299 -4102.744872 34215.600925 29365.491916 30073.621337 27197.265467 23438.959050 26506.592763 14584.634097 22883.021552 22220.738074 -13390.649553 -17159.535126 32367.095289 27357.460662 30380.946722 22276.695190 24006.080406 19204.877567 20145.149591 13592.880344 14690.504901 6711.279897 -20077.404008 30131.380647 27030.475918 27973.979331 21612.530808 23016.379601 15596.674111 19710.532101 19966.389165 8603.486433 -5698.165653 -16767.223674 27677.206951 27081.076330 24147.626737 23121.711050 17808.674715 20190.036358 14422.120459 10843.139638 5816.829957 2291.739498 -21885.861447 26599.398617 26480.664690 22725.763285 22434.944229 17336.959645 17583.728116 18898.538032 17404.800701 6327.221011 5173.271001 -3734.381246 26267.291426 25476.783778 22173.239538 19979.084779 19045.537961 12314.012437 16493.542721 15128.532507 8131.213568 7656.807174 10553.085106 25676.379425 24460.099403 21740.064520 19636.898867 17971.723496 14399.284553 14661.294555 13702.410590 6845.369053 7315.356131 9116.879025 24793.030246 23280.327245 20890.486073 19847.433258 15860.854966 17240.083084 11390.739814 16324.354390 2895.439528 -10082.272401 1882.756754 23638.251399 22294.923068 20146.376096 19342.546189 15840.713575 16034.272305 11929.404088 14484.360470 6778.630777 6277.192246 4344.868606 22727.785582 21547.382168 19684.761770 18206.388910 16713.448915 14150.900676 13242.609796 9249.444451 7836.632588 4250.094603 4529.576223 22168.370126 20963.867396 19070.876209 17647.376584 16119.558272 13991.751323 13139.929244 9454.455976 7943.520617 4070.923721 6535.220065 21203.249330 20316.528513 18164.999201 17274.515666 14989.259624 14337.083241 11353.758826 13437.822288 5009.290033 7917.281706 7294.967420 19949.272083 19453.650884 17514.076514 16527.480975 14219.442506 14281.031334 9476.272362 13738.793602 1797.724474 10187.941519 11808.321290 18876.103380 18628.457345 16969.302603 15672.661897 13627.073365 13267.001746 8961.011045 12059.222459 1618.215954 9411.609925 14177.975803 18303.716465 17953.273774 16285.461105 14727.194344 13162.126019 11548.773228 9480.949882 9776.705259 3158.023912 6364.059509 12832.272496 18321.694002 17316.183789 15608.084719 13652.703358 12580.230510 9942.541446 9645.097012 7335.148504 4645.343621 3588.360350 11350.673777 18277.816428 16555.692649 15011.124087 12627.720097 11717.935216 8810.658671 9465.117691 5539.387676 6228.148702 2340.896839 11534.125115 17862.781056 15515.333557 14406.081346 11707.953312 10667.346947 7992.514702 8568.601468 4374.005640 7142.830867 1314.905710 11614.056088 17179.784140 14428.953153 13737.976209 10851.057121 9580.595639 7335.545716 7451.492852 3807.751585 6948.079637 434.107778 10812.308877 16620.595561 13541.478189 13008.474203 10022.591289 8552.216816 6768.642860 6200.223304 3302.792637 6028.159419 323.791769 8759.955557 16017.331518 12711.888756 12197.414465 9214.481719 7556.930827 6075.498640 4955.800326 2783.173553 4847.360081 457.885227 5743.653113 15313.166272 11701.396783 11233.482141 8390.715731 6541.164332 5250.103397 3824.446527 2137.992917 3544.471729 120.961285 3446.569481 14237.825718 10625.229608 10053.440138 7532.564188 5501.235504 4384.206990 2849.023942 1414.728625 2276.561429 -298.346474 1874.011511 12800.900529 9428.432593 8672.053666 6643.766289 4517.950082 3564.058143 2042.497779 787.116257 1417.438592 -606.383829 943.808452 11151.227965 8173.289872 7191.248204 5728.694313 3640.324478 2873.396675 1485.659803 425.680020 856.510843 -699.656375 477.181505 9400.093549 6926.015091 5710.234122 4787.218652 2838.186486 2278.083622 1115.928027 245.271730 602.795488 -608.174135 292.274899 7631.999259 5679.545129 4265.247503 3791.344958 2053.203390 1707.204429 807.205593 124.531162 469.334150 -445.532965 248.923679 5909.943165 4436.784355 2868.812928 2735.507143 1213.685042 1063.015834 415.110775 -54.330027 365.321455 -245.018904 202.043430 4324.262427 3239.797710 1559.608842 1646.025882 293.554070 304.997860 -146.402538 -405.382115 125.090499 -201.425561 64.705999 2998.999955 2120.665118 382.220619 584.529981 -669.730019 -542.689198 -852.764446 -916.665563 -249.067343 -315.133550 -144.641140 1917.242043 1147.449914 -629.988216 -367.973959 -1585.526432 -1398.011340 -1615.062757 -1522.162815 -724.054582 -559.557008 -400.052664 1167.915156 422.800321 -1431.437788 -1146.720314 -2363.458907 -2153.406620 -2313.397684 -2107.360125 -1207.952574 -856.170330 -647.233909 679.523176 -66.651583 -2016.506482 -1721.011661 -2955.352434 -2739.693441 -2866.592953 -2585.990321 -1617.923714 -1127.006910 -844.883403 355.221591 -375.057272 -2408.560809 -2095.970693 -3350.533737 -3136.531345 -3242.880655 -2922.048712 -1914.131915 -1328.561542 -978.436782 124.332908 -522.054886 -2630.808715 -2302.515553 -3571.602001 -3366.535288 -3455.197624 -3121.082929 -2092.146169 -1448.976460 -1053.824111 33.115120 -551.421910 -2718.838569 -2388.328508 -3659.672233 -3473.057130 -3544.279551 -3216.993581 -2175.862434 -1502.965074 -1088.984905 13.025574 -494.896997 -2704.867864 -2389.229734 -3653.950239 -3499.182149 -3554.185764 -3248.758915 -2198.179013 -1515.195764 -1102.661072 63.344189 -363.542770 -2607.140365 -2327.973606 -3583.638227 -3473.657103 -3517.264993 -3245.037742 -2185.981757 -1507.319196 -1107.753231 185.527864 -164.814563 -2433.533613 -2213.808047 -3461.018800 -3407.624908 -3448.386434 -3218.531181 -2154.144869 -1491.867530 -1109.072784 385.768071 98.681044 -2186.091173 -2042.995270 -3286.679773 -3299.748943 -3346.647137 -3168.127395 -2105.782368 -1471.394778 -1104.719758 670.843164 424.631582 -1864.123490 -1808.519011 -3056.657096 -3141.112519 -3203.606751 -3085.447859 -2036.454905 -1442.042542 -1089.625921 1041.863521 810.086410 -1467.179295 -1505.968609 -2766.736656 -2923.137407 -3011.334605 -2961.404112 -1940.009403 -1398.387125 -1058.918880 1491.909374 1249.466815 -1002.607644 -1137.429717 -2416.728133 -2643.039043 -2766.528567 -2791.286724 -1813.076026 -1336.880028 -1010.194628 2004.532311 1726.062604 -487.993673 -710.235668 -2012.932485 -2306.264870 -2473.247727 -2577.040249 -1656.539882 -1257.355078 -944.436550 2574.663174 2240.466613 64.344151 -240.391920 -1568.877562 -1924.094851 -2142.254528 -2327.104438 -1475.620401 -1163.001368 -865.489227 3161.047962 2774.452307 647.813468 253.829732 -1103.115586 -1512.065832 -1788.158167 -2054.040116 -1278.870124 -1059.352762 -778.906143 3756.536384 3296.454085 1242.984546 758.709053 -633.683410 -1089.452767 -1428.057316 -1771.971912 -1076.064349 -952.819346 -690.844739 4378.658841 3806.633749 1817.987727 1255.034464 -176.777472 -674.131179 -1078.358854 -1495.005685 -876.874187 -849.482737 -606.970289 4956.056000 4285.327327 2355.745402 1726.059191 251.354077 -283.024438 -752.646818 -1235.257613 -689.806522 -754.108741 -531.666122 5470.848522 4728.230749 2845.845930 2157.843479 639.434078 70.891984 -461.675670 -1002.358556 -521.429002 -669.470776 -467.623485 5938.315939 5126.713273 3277.656874 2538.139767 979.382052 380.271311 -211.235257 -801.849568 -375.814506 -596.711244 -415.737201 6339.711828 5468.364797 3650.149625 2864.685895 1267.995713 641.608404 -2.429497 -634.864426 -254.023276 -535.335034 -375.423461 6683.300010 5768.172850 3972.190073 3140.737081 1509.236270 857.637011 167.978596 -498.865964 -154.673906 -483.312571 -344.800527 6964.683494 6019.927788 4248.920632 3376.276359 1711.870328 1037.627212 306.585202 -387.980011 -73.798509 -438.143919 -321.024770 7209.769310 6234.263096 4480.071250 3582.480349 1886.139996 1192.609498 424.230144 -294.667817 -5.890075 -396.846127 -301.218802 7423.098709 6436.137003 4675.542861 3767.587012 2046.307724 1331.197897 531.639506 -209.478653 54.046694 -356.229183 -282.786154 7592.373353 6630.371426 4865.188399 3944.098404 2204.153122 1467.660356 637.640121 -122.705898 111.233472 -314.280823 -263.645083 7778.435243 6830.384996 5060.060039 4121.261841 2363.965657 1609.934160 748.858992 -29.727507 170.541270 -269.238658 -242.635637 7994.321971 7033.115412 5269.139662 4318.761309 2540.054862 1764.516597 873.188502 73.469031 234.505574 -220.079408 -218.453126 8253.007580 7265.562061 5491.279137 4530.332836 2732.256975 1932.238495 1008.876029 187.944038 304.318164 -167.945549 -190.659350 8549.731665 7557.234578 5745.264219 4752.554532 2936.162730 2112.753844 1155.415258 311.551053 380.490063 -111.955737 -160.737835 8813.514703 7829.563741 6018.350272 4990.111832 3152.223276 2301.772697 1309.298124 442.338155 460.363966 -52.395837 -128.974609 9075.444270 8080.820886 6279.190184 5208.392073 3356.880336 2485.565357 1458.007087 573.584206 540.236345 6.209114 -96.038362 9365.118483 8355.808819 6557.198950 5432.288475 3572.013108 2673.617790 1612.281745 711.211462 625.137180 68.453548 -62.848765 9507.470617 8593.910913 6793.889851 5611.757664 3760.928533 2831.019642 1746.433926 835.861717 701.857078 130.797437 -30.351192 9728.975010 8864.906199 7049.851003 5796.561955 3965.648836 3007.125725 1902.942080 976.868707 789.325789 198.684920 2.401142 9819.510969 9015.379936 7225.868530 5949.275523 4144.074788 3153.266477 2036.983422 1106.400832 880.245637 274.197866 42.617766 10001.384708 9313.759962 7437.301218 6113.475589 4332.823271 3317.660395 2202.887774 1245.928850 968.329205 344.580480 77.832831 9957.821524 9345.512934 7516.064867 6242.143066 4509.772244 3462.934105 2366.026230 1401.093543 1096.312626 462.309204 128.807173 10123.174673 9647.659674 7671.021129 6380.159476 4671.025433 3602.692488 2543.343351 1530.867932 1153.460981 512.558745 175.238963 10067.871860 9725.408864 7786.693318 6523.847089 4829.263657 3693.652718 2653.972403 1680.748869 1331.483020 661.127522 219.394431 10050.782096 9747.624588 7670.698392 6597.861920 4991.956162 3922.349263 2917.815128 1789.526432 1311.274875 676.242444 302.242673 10459.405798 10418.238327 8237.760489 6922.788089 5108.330147 3831.924661 2879.867824 1914.350657 1510.469256 758.457587 251.658610 9912.516711 9724.454092 7679.329577 6873.719842 5381.714485 4342.041043 3254.446908 1975.317867 1495.354641 934.421869 424.391521 11141.246700 11301.518373 8866.443873 7549.404780 5456.833630 4044.641275 3216.774525 2266.730399 1545.435767 483.360034 436.970741 10128.681956 10002.856676 7827.366488 7126.392131 6046.217081 4763.682474 3594.313209 2025.065570 2013.876058 1369.958714 204.043162 11824.700355 11630.584092 9671.010898 8237.037949 5539.657811 4543.814126 3826.858889 2531.271294 1207.136659 816.252424 618.462722 10546.643664 10975.951472 7679.312286 8228.413481 6778.766627 5171.888618 3667.732955 2800.191337 2622.563642 576.993505 648.270337 12027.384335 11405.821173 10187.564465 7928.626583 6261.526469 4507.073239 5038.535971 2273.500153 1584.166531 1721.375614 139.017487 11570.899996 12007.989264 10125.583746 7752.448814 8300.638462 6568.245583 3251.523758 4513.795550 1351.064172 1668.374170 372.814928 11985.363653 11445.532046 12185.841602 7556.138569 7526.745098 7116.484936 4270.667978 3177.771573 1581.798077 950.171548 672.531077 13541.985988 14268.991558 10467.382174 11172.621552 5763.259354 6019.548981 6093.885756 3006.672277 3365.577021 1902.463845 242.523917 12288.761726 7765.237300 12487.066351 9856.021267 9920.614542 4182.367352 5433.206575 2520.040395 811.050777 1018.269119 222.063073 15847.796531 15219.164452 10861.924085 10550.366005 9642.618354 6615.117347 6650.769052 2532.162021 1992.316775 5047.215329 140.029433 7816.759185 9215.559276 8330.901855 7503.057783 4921.051397 4503.018509 4239.767826 3274.940390 4129.254913 371.874172 -1060.096255 38765.580889 39474.433745 37110.355560 34717.746911 32941.481713 30334.941920 26926.905788 23158.609634 19159.067561 16575.918576 11999.881373 7479.177004 1483.618582 -2623.474788 37204.755348 35324.536471 33778.406478 30908.132859 28808.026836 26625.217377 23948.093590 20842.854539 17795.938172 13666.175674 9468.488857 7332.986620 3256.571118 -927.691681 35208.542569 34230.022948 32484.248524 30789.070062 29278.717383 27241.336105 25215.692389 22277.039361 19236.001244 15855.188131 13409.805775 7216.162742 3430.661729 2694.440124 36234.104459 34815.498549 32738.245811 30629.772070 28584.883346 26014.689329 23397.035359 20388.875898 17928.597954 14986.655999 11388.982614 9006.288461 4370.305590 2133.461635 32586.392849 30224.000727 29682.935843 28406.058248 26683.023170 24572.545938 22384.855132 20277.433684 17388.572751 14571.257580 11928.539577 7702.160230 3639.721036 1974.339066 34944.066880 32435.832712 29632.868836 27383.934486 24738.658030 22408.505351 20495.983305 17715.024628 15396.039285 12785.631201 10173.640819 7683.456514 4027.238699 2057.841356 30180.711083 27282.889038 25818.131142 25347.830417 23982.306691 22179.230397 19473.480349 17125.636342 14555.871729 11691.423522 9567.851260 6634.679624 2984.204031 1563.187445 34770.860419 30638.879276 29691.335235 27672.318252 24099.972448 20465.753407 18522.483737 16445.252322 13413.518636 10923.432158 8841.043636 6738.367815 3281.619355 1554.614167 31982.974441 33287.934905 31293.255659 25166.306465 21720.858784 23123.582472 20866.005952 17334.782304 14550.586715 11797.663797 8950.126931 6033.962280 2536.794897 1347.240733 23935.029570 24622.217273 22688.498684 21293.231987 22960.231234 20207.473112 17879.910590 16626.719312 14795.058854 11647.480246 9414.118485 6970.002534 2974.605036 1795.556715 28811.734927 18950.149553 19974.352561 21366.121761 21220.439455 19471.366808 18725.491065 18471.468291 17094.343734 13966.970595 11111.131612 6424.344989 2817.539163 1890.929110 25355.230106 21814.686473 15792.733049 18455.970357 20121.282018 18295.759322 16840.508684 15380.691614 14111.762769 12877.934825 9091.058071 5592.644341 3470.980857 2547.318204 20727.842497 21673.494238 7309.302570 17239.567003 14763.192115 17573.965489 22509.056014 15115.781262 10744.052606 9349.894342 4363.468708 3276.690194 3392.431505 3302.442934 3332.060536 10120.509091 -594.002137 12269.161118 18430.423506 3545.461838 6751.678982 17010.266145 15586.588229 16916.912184 8512.241949 8840.537393 6618.858926 3821.029981 -11400.701850 14172.456198 -5187.434669 -4480.770868 -4421.971893 1498.816410 282.366512 3747.694002 1237.067716 4195.295574 2519.781337 -27.436381 6144.946429 6485.946638
</DataArray>
<DataArray type="Float64" Name="Velocity" NumberOfComponents="3" format="ascii">