<VTKFile type="PolyData">
<PolyData>
<Piece NumberOfPoints="1945" NumberOfVerts="1945" NumberOfLines="0" NumberOfStrips="0" NumberOfPolys="0">
<PointData>
<DataArray type="Float64" Name="Pressure" format="ascii">
 17558.037285 15992.445914 16758.268584 16116.743531 15231.479541 14768.398703 17681.563061 17752.800892 15914.423843 15693.369441 15836.971251 15912.355414 16841.967366 17061.592510 16933.866552 16752.173406 18351.031564 18441.173909 17873.605124 17909.617707 20456.453134 19886.149711 20088.010809 19694.401208 18109.101263 18577.039897 18828.684569 19733.024172 20070.787220 20622.992523 20431.250182 20082.735352 21538.158032 21984.867811 22660.288904 22312.642397 23230.845233 22615.718534 22173.433221 22287.853099 19630.328437 18797.085536 21977.220124 20205.401024 23379.097577 20904.951841 23479.439544 21777.504857 23914.901972 23633.009050 22258.995520 22082.724078 23078.368409 23699.959214 22590.539425 22462.611505 22252.033226 23089.720448 22061.273968 23125.730733 22341.702160 22364.269395 21548.368133 21881.204442 21031.229656 21841.555474 21777.576049 21482.001483 22499.064273 21513.890799 22545.891566 22838.032214 19816.913455 19875.370366 20030.848275 19889.553615 21373.521639 21367.646798 24490.617461 23939.466666 19676.937302 19992.695060 18541.310003 19375.638721 18474.311030 17982.910933 22596.027601 22479.609392 19122.579275 21038.125729 18610.315801 19962.252585 20879.462719 22574.322787 18357.228264 18901.042451 24139.787591 25837.353168 15388.211880 17120.096380 20013.335066 20954.913495 21594.581929 20170.328088 26589.257229 27934.321011 19517.405797 20598.338782 21695.071550 22196.344817 23045.348861 19305.695529 25495.302952 21525.464299 23773.357052 20301.208043 26449.514515 25593.029618 19882.909642 17977.090835 26535.112498 26285.316657 14896.566387 16125.258726 19637.428293 17644.865842 28409.320474 27869.857447 16376.136731 19147.829382 17847.672189 20601.648998 18437.240967 19358.980218 19385.489806 20291.347315 22465.833702 20010.210500 30059.694767 28604.148935 22564.804654 20936.152827 27743.151572 26564.954040 22551.829394 19796.223715 29300.489427 27959.897232 21536.089324 20691.007085 26947.846812 27289.936438 26231.380682 24136.129929 26041.773659 26932.790046 27007.852835 29315.168520 22223.413437 22338.397667 33578.934594 38397.137044 22682.902228 26928.283846 33751.919106 37563.360661 24161.409150 26480.304366 30785.132476 30805.392722 30682.181803 32748.854406 28416.433066 28103.434442 36217.869622 32642.395139 28956.619133 24002.159143 38299.305428 34010.184138 35955.977496 30372.361209 32086.246150 27964.330981 34491.846239 30770.548551 28041.572710 23489.980983 30521.477639 27457.169587 31255.857080 29147.548039 31793.448283 29201.577923 37871.752403 30698.336379 38013.448202 30936.649057 35204.335757 31227.971793 31751.416189 29648.376489 33335.875328 33558.275055 30799.300519 31781.228004 34389.666903 38048.169848 36363.229175 39740.595921 12757.706829 11589.277342 10923.173385 9430.977820 7892.747987 6273.424675 4745.786981 4111.426486 4101.707269 1861.597013 -1214.167020 -2312.045216 -2194.928298 -2009.096574 -2677.473593 -6924.491817 -9153.689183 -8390.015272 -8200.771868 -8054.694395 -7820.542187 -7525.953047 -7192.499787 -6838.036422 -6476.381931 -6116.959601 -5765.323559 -5424.106739 -5094.010102 -4774.645334 -4465.170250 -4164.720311 -3872.666171 -3588.734711 -3313.030321 -3045.989319 -2788.295386 -2540.778358 -2304.313123 -2079.730013 -1867.743278 -1668.900360 -1483.551714 -1311.839015 -1153.698518 -1008.876160 -876.952227 -757.380988 -649.595643 -553.488578 -472.427490 13340.902456 12501.760795 11551.912919 9831.942452 8371.169791 6868.374784 4146.964453 3437.950063 5484.048776 3344.962203 -964.821867 -3104.699276 -2144.785049 -1811.180186 -896.098062 -3456.186410 -7811.854977 -8137.999677 -8057.464357 -8012.215959 -7802.633587 -7516.599651 -7187.747080 -6836.412522 -6476.869422 -6118.726905 -5767.735120 -5426.728608 -5096.585108 -4777.053313 -4467.386605 -4166.779591 -3874.632998 -3590.682245 -3315.025565 -3048.084269 -2790.522887 -2543.151520 -2306.827203 -2082.365755 -1870.470921 -1671.683675 -1486.351659 -1314.616754 -1156.417621 -1011.503446 -879.454002 -759.694336 -651.448794 -553.311162 -460.446571 39392.753202 36329.530820 31569.216971 27315.162402 23055.334478 22462.328462 21192.507635 14949.275944 7676.109511 5728.683591 3668.361758 12627.386957 13533.687599 481.311598 -803.677469 1037.039958 1510.267602 1549.524220 1268.143962 828.018057 331.417469 -172.862699 -660.873281 -1115.086915 -1518.477273 -1855.102129 -2112.337750 -2282.574466 -2363.890708 -2359.891949 -2279.008158 -2133.466226 -1938.072587 -1708.905169 -1462.013273 -1212.233786 -972.231066 -751.845732 -557.795933 -393.723173 -260.526744 -156.897428 -79.948238 -25.847021 9.622826 30.619019 40.931973 43.805721 41.863884 37.088483 30.652504 41491.435898 40989.113715 35397.609511 30099.227758 25950.665101 24551.686670 21177.699446 16223.565344 12177.223970 9864.519254 7974.927817 6917.367764 5253.301378 2153.664416 971.619645 1133.091895 1464.852303 1490.361933 1231.198472 811.235283 326.150618 -172.113571 -656.126825 -1106.765026 -1506.797403 -1840.617091 -2095.960142 -2265.416227 -2347.089572 -2344.479563 -2265.822478 -2123.098433 -1930.841645 -1704.857719 -1460.948112 -1213.748437 -975.784692 -756.829760 -563.602543 -399.802839 -266.428758 -162.291041 -84.625558 -29.711425 6.577697 28.334577 39.310281 42.734161 41.248045 36.953245 31.709734 -415.978757 -390.219852 -397.020233 -372.897420 -348.405844 -335.310564 -290.651940 -289.194545 -244.809492 -245.093680 -205.897321 -206.413879 -172.593097 -173.091966 -144.143447 -144.588394 -119.936029 -120.325619 -99.425426 -99.763907 -82.120629 -82.413044 -67.581563 -67.832880 -55.416473 -55.631399 -45.279021 -45.461940 -36.865046 -37.019993 -29.909117 -30.039765 -24.181001 -24.290664 -19.482158 -19.573799 -15.642337 -15.718584 -12.516335 -12.579503 -9.980962 -10.033074 -7.932234 -7.975047 -6.282817 -6.317847 -4.959713 -4.988259 -3.902196 -3.925365 -3.059982 -3.078713 -2.391621 -2.406705 -1.863099 -1.875199 -1.446623 -1.456293 -1.119585 -1.127283 -0.863667 -0.869773 -0.664092 -0.668917 -0.508990 -0.512788 -0.388860 -0.391840 -0.296133 -0.298462 -0.224799 -0.226612 -0.170106 -0.171513 -0.128313 -0.129401 -0.096482 -0.097321 -0.072320 -0.072964 -0.054039 -0.054532 -0.040253 -0.040629 -0.029891 -0.030177 -0.022128 -0.022344 -0.016330 -0.016493 -0.012014 -0.012137 -0.008812 -0.008904 -0.006444 -0.006512 -0.004697 -0.004749 -0.003414 -0.003452 -0.002474 -0.002502 -0.001787 -0.001808 -0.001287 -0.001302 -0.000924 -0.000936 -0.000662 -0.000670 -0.000473 -0.000478 -0.000336 -0.000341 -0.000239 -0.000242 -0.000169 -0.000171 -0.000120 -0.000121 -0.000084 -0.000086 -0.000060 -0.000061 -0.000042 -0.000043 -0.000031 -0.000031 -0.000023 -0.000023 -0.000017 -0.000018 -0.000014 -0.000015 -0.000013 -0.000013 -0.000012 -0.000012 -0.000012 -0.000012 -0.000012 -0.000012 -0.000010 -0.000010 -0.000005 -0.000004 0.000007 0.000008 0.000030 0.000032 0.000073 0.000076 0.000149 0.000153 0.000277 0.000285 0.000492 0.000504 0.000844 0.000863 0.001416 0.001445 0.002337 0.002384 0.003820 0.003894 0.006205 0.006325 0.010056 0.010251 0.016291 0.016610 0.026425 0.026946 0.042929 0.043778 0.069803 0.071182 0.113440 0.115658 0.183878 0.187400 0.296551 0.302053 0.474618 0.483049 0.751867 0.764499 1.176033 1.194485 1.812093 1.838281 2.744699 2.780662 4.078376 4.125859 5.933582 5.992981 8.436677 8.503447 11.705310 11.752637 15.851018 15.737399 21.180912 20.058625 25.627483 23.645575 27.451659 25.418819 13080.177169 16734.086746 12508.807078 15152.681264 14472.702118 9252.385703 12939.799222 15224.511194 10844.247312 10188.762870 14570.978686 14101.165807 16306.500941 11680.973132 15453.682069 10676.299800 7157.231118 11870.600362 13815.282456 9161.799322 11761.590232 11467.354715 18064.456249 16349.222063 16592.156483 15862.995360 14459.852917 16698.374598 8957.600349 12782.397970 13824.225849 3225.880789 15256.611260 18155.616917 18882.040436 16534.121076 9266.236875 15884.952615 17220.222672 11647.348252 6867.314556 15126.144806 7792.957093 15191.170775 13808.035681 7010.510374 18723.988895 19802.918232 18319.537731 16497.246813 15409.342429 14381.372185 8090.672445 12732.408455 13395.322732 16616.526409 19131.633633 18673.948935 19226.391510 19295.701245 15439.283002 18972.018015 17561.584694 13682.258045 13348.575045 17864.570623 17686.583995 19368.728145 19505.819609 18364.115788 18672.323834 16099.028918 16426.921522 18471.079776 14276.022944 15023.540097 9473.492610 18167.443464 19239.335230 20106.206808 18547.215957 22128.003859 15033.537719 14431.765902 17712.403644 17950.028223 11090.635652 11718.618312 22368.742779 20164.216663 19102.500941 18739.424025 18893.225191 17622.931458 14264.793811 17480.014512 15435.868693 12718.984159 15741.559227 21781.167956 20536.605221 15499.845859 18440.647674 11518.101417 19295.338092 14905.320740 14813.561035 17678.684732 5211.546754 14368.022367 22004.815877 18391.120409 19067.823967 6270.091890 19546.017672 12306.695019 19680.962673 8907.043214 10779.558497 7594.204798 4823.000866 20777.929560 20336.986703 11942.067369 20604.338923 9152.669491 17829.411898 12030.863038 15097.873613 14668.134318 15464.108977 11286.813512 22027.200290 19242.109729 20534.518802 17787.044197 15219.774861 15850.907451 17469.024074 12288.654563 19063.014577 17485.799499 10836.607028 20851.784532 18234.967905 20135.795483 19899.191315 18918.441198 15915.351572 16385.387584 14542.907575 17759.251797 9710.627056 9778.574961 23214.463717 19299.576897 20979.444418 19385.720871 15055.244093 20211.186858 13288.631863 13301.748233 7640.225834 8613.852465 8298.871024 21981.785014 20596.304368 20358.876217 16836.620129 14190.608442 11431.247845 10889.504781 7667.036593 5529.096070 3686.883089 2626.606305 19822.265148 18963.250707 19593.470731 19095.959902 17280.716956 18346.059781 12893.611948 14184.055472 7916.394884 1910.216462 2499.403764 20813.284474 18339.847684 19121.608396 14230.241418 10829.466529 6300.393398 4375.397324 5157.552626 2717.034224 3081.952879 3390.051650 19618.792661 17588.398768 16607.320897 16901.303626 14669.490530 6332.511605 9605.680331 7172.985403 5184.995493 3334.138254 2859.466308 20682.429311 18916.125550 19687.639791 15299.548603 8020.385981 8234.444765 8259.887597 3794.254485 2369.427977 1285.761279 2432.124160 20351.386023 19143.486866 19189.017212 15770.054634 10065.789324 5458.999490 4528.676285 2700.882834 3813.881083 3269.964951 3375.392227 18889.181523 15832.772264 15628.189941 15323.835279 12805.552211 4711.993704 5912.805416 4612.247726 3649.277501 1043.836780 1697.711806 21786.663656 18674.264969 17130.401735 11080.230810 12482.341958 10080.170083 1099.511842 4248.081932 3105.056528 2819.045254 651.957549 18636.433361 16401.793811 14766.912396 12746.741819 6072.842784 10327.381690 10853.772698 9724.643209 6859.882179 3219.941105 1792.111012 18155.971759 17532.945433 14464.079800 12442.459839 12220.331432 12154.195901 8550.356338 1384.324075 7963.130271 4792.227225 4941.809123 19073.606249 17789.071431 15202.128890 18097.372783 13948.281239 10004.325450 7489.234317 7481.929770 6770.170302 7215.546998 2362.239282 18657.622314 15790.262011 16033.867593 12941.382153 16157.585307 7583.515864 11043.847066 4730.166103 6630.732207 1909.640794 2002.367682 18325.537515 12343.844615 10023.584941 14037.372161 13572.873332 13642.735603 10106.846183 10825.491047 2934.185074 2397.055592 7601.252537 19392.177378 19538.762236 15865.076057 14650.717073 14404.160618 10208.480109 3740.117558 6648.990928 5911.251163 5123.690688 1533.821217 18840.784728 18327.891868 16490.336199 10624.930238 12206.071466 8679.083054 7453.476813 4809.382238 8731.622157 6320.452304 2261.003726 18542.659992 17013.444860 21355.159098 14946.344459 12736.496839 5740.048857 8290.538597 8386.866732 4642.118785 3912.543570 1589.091583 20885.801894 21344.895386 14633.162326 14200.238721 15064.194934 12216.163885 11678.133874 7729.280323 9257.105457 6814.717603 171.158488 19548.089392 9402.780625 17622.581712 15166.583488 16739.312803 12843.385867 7710.301445 9341.663198 2350.365144 5706.159201 4823.696851 21636.702976 21733.889333 16781.876911 16980.573518 13510.544684 10858.225742 11273.665176 7805.156850 4581.920424 2231.982564 5648.471439 18761.962808 17196.122044 15983.871734 14475.712370 14094.909998 12673.758936 8508.293805 5201.354635 3858.889857 3950.748051 902.064868 19873.400059 19457.856444 19276.439438 15913.129145 15888.120504 12194.958550 9463.068058 11515.405967 4035.814969 1755.896335 2792.774001 18525.617886 19528.653040 14844.776698 15455.932871 18089.818921 10709.382208 13035.459278 9342.232062 7253.915436 5403.856869 5696.289972 18573.471579 19096.141901 17342.741197 16970.640241 15384.008050 9471.718230 9653.063526 9542.012040 11975.457480 4521.666231 5116.512844 20969.986265 19274.281663 17783.988900 13181.265624 13685.517512 9211.925572 5921.957702 4844.477542 5722.427070 1313.734169 -1473.311478 20931.647978 18073.217373 16774.464430 12871.448162 7569.631913 10486.557417 5668.167555 5005.879010 3003.814487 7391.983370 7774.728440 21519.479815 20138.865853 20169.502986 16323.317986 14777.600230 8454.887374 6569.790683 6717.171078 8926.455966 1982.976811 1381.712373 20116.820074 19386.501834 16152.096507 13565.872253 10928.706746 9955.553638 13605.122423 6181.827260 3136.674958 3724.768242 4458.698266 20551.044701 19835.636325 15364.378102 13097.765454 13479.305185 10535.065529 9797.890568 8116.264652 6251.647488 6133.404989 3585.057091 19852.941724 17127.398463 15238.776627 19387.245267 12606.645999 12051.076099 6659.754564 4520.235180 4012.937467 3470.032891 7263.431199 21787.444123 19071.989921 16265.450057 9953.500624 11163.548221 11444.031970 5395.912148 11239.519955 2854.058782 6117.892620 649.765820 19646.554270 16568.471521 17666.304410 6655.880906 6633.731557 7635.867548 8036.644712 5161.085661 2157.521073 5853.331169 2673.525542 17842.440920 14577.436448 13083.759592 14878.922387 7484.656196 10653.503867 10483.000914 3667.954769 4471.836266 10961.608057 607.178719 21232.115665 19165.246258 14423.811493 17197.053481 11661.459935 8533.525492 3336.191560 12417.505871 5668.779055 113.835881 -324.656860 19886.797595 19431.196043 18704.884402 12488.640557 10144.219663 14150.390991 12438.968562 4591.758752 6872.017289 1813.022368 2338.354289 17527.583036 16540.152508 15923.451614 12714.789185 15284.402814 11310.504544 11508.464710 7365.011591 7942.479687 3131.977923 -143.568859 18555.185763 15684.862851 17007.621553 16454.488615 11051.014953 11728.156314 9694.734444 11808.150382 7577.881747 6397.795990 -133.370186 20174.983796 21168.428966 17027.664805 13343.811904 14539.928445 10573.111050 11492.585340 9415.026836 5952.765641 2017.192893 242.363703 19171.904795 18072.277305 16506.291885 15448.098258 15319.704947 11602.258494 9442.194118 8325.039886 9411.361653 10009.667221 2581.491215 19620.328822 20130.072994 18113.978523 16945.806171 14605.842773 13774.033236 7715.474197 7367.242295 2206.989646 6173.119179 541.075924 20900.220849 18259.128991 17118.504196 15655.153210 9241.307801 4982.992866 4363.068622 7088.930316 1931.925713 -312.441600 -2419.308170 20530.630811 20396.025883 16533.509320 15539.793129 11083.778067 10812.916593 8674.023397 3205.477637 3904.162334 3210.049780 1439.781570 21342.776493 19593.356411 17660.108743 14841.462336 8780.526898 9488.091246 9688.805941 6413.784427 3166.676295 3601.609429 -30850.179006 19031.363091 20083.218415 14683.384292 12748.747035 14510.951564 13090.232486 15211.490757 9223.340413 8964.309112 5641.793916 154.198921 21053.885337 18338.648051 14759.662483 14443.782200 13539.669945 13759.052872 15325.787116 13105.384296 6777.230272 2046.356175 -279.099830 20454.063458 18537.238382 18508.705623 17705.379127 15028.393598 14803.477528 15155.397908 11132.942734 4480.389751 2487.127599 4915.377071 18790.017636 17750.266543 16037.216836 19284.872248 13951.692102 15722.852937 8964.972607 4399.574757 3617.546781 2129.094694 -660.642493 20504.675055 19890.945963 17000.579434 14654.852629 20158.412156 14567.380898 9681.089351 5744.070157 7535.072321 -207.716334 3563.688582 21660.593801 22060.179733 17871.650749 18742.948202 19125.155587 15331.739247 18347.402636 6834.884425 2793.952302 4224.057882 1630.688712 22882.426601 18369.419664 21170.439030 16652.568396 19749.720103 18909.153501 11666.692871 11748.404719 1424.754673 717.629206 6735.242069 20616.722887 19259.803370 23237.581357 19581.280395 16104.466172 21202.310156 14455.896178 9269.640360 6805.597581 3088.123586 1527.298812 20132.865277 23485.958700 19122.933361 19674.399024 17527.637471 16405.417955 11314.633555 9937.252863 5217.499788 1373.050277 5220.597857 24033.717260 22240.344529 21139.173940 20790.876364 11944.984744 14985.230684 13821.703732 4308.347647 7679.349645 1313.057803 2134.412731 22114.730287 20428.277858 22863.850759 21655.175730 13761.546128 11019.415236 6145.757387 9387.950446 5338.711314 7207.215302 -2709.797679 23761.456530 25172.810576 22986.953700 20748.554459 16874.553284 7982.203617 11248.984260 6249.180412 8942.311291 4322.951911 2875.027979 23799.627206 23715.639019 23779.217495 22280.733832 18121.609767 10360.737106 12804.825357 5808.215417 2978.759295 7345.099679 4167.931508 24609.728276 22580.806170 24518.859150 22859.634389 17192.752897 14021.262139 7175.190708 12345.267488 5702.713183 4290.019889 5081.162691 24425.107014 22047.069794 22173.692898 26455.979487 19670.592025 15034.054212 13918.470463 9885.279556 6149.448075 3458.571281 -1393.310388 25979.118320 22868.070805 32310.188070 20735.833845 13508.721414 17408.583593 13434.288320 7254.706169 9496.232656 797.640724 7505.609831 26553.586828 25965.437282 22130.823506 22182.780843 21278.171390 18735.691367 13207.291241 9790.587994 4947.300014 3986.537728 8063.008035 28199.201603 27162.516276 26266.440581 18790.469124 19627.561940 15797.121266 14254.414179 10267.466493 2797.585080 1330.325661 -5690.772258 32336.065300 26230.913428 20074.178263 22055.324045 16107.072598 12031.032099 16569.628945 10151.438303 10139.978016 10775.642098 -7781.476982 30643.811514 31332.977665 24776.626820 31154.922642 19549.261403 17010.183597 13544.395574 9703.447701 9361.885212 1619.470306 -9114.256193 33507.260897 29793.154412 28250.277110 25347.702790 18044.593269 16168.179134 12056.209563 9271.074333 7949.936906 1579.128916 9642.521943 31012.284569 27742.337810 27832.229961 24720.959148 20659.065868 19000.058664 21966.304801 8438.636137 8380.538555 -2882.253053 8473.125676 32556.075741 32577.624536 24104.286583 25915.025180 19486.966425 16331.989750 13054.219794 10891.764588 8396.715466 8795.878779 11925.707848 30344.343774 29409.638035 30577.597209 22766.685388 24659.708687 14302.151613 12897.172197 12638.463637 7253.292174 1474.989659 3116.831785 29927.880169 31902.982166 25668.091223 24684.507981 21906.797396 20387.057072 15347.860147 12019.107666 9662.731671 13219.308964 9520.076632 29466.495088 25746.187190 30015.494205 26708.753121 22347.350246 23584.678190 15077.178826 8605.889585 9242.444111 4661.645607 -4152.183466 25215.773116 29301.489333 26470.399451 23558.366347 23152.983650 21227.493833 16936.461843 11579.380172 12248.896864 12975.705079 8226.565697 28998.721383 27944.607621 26411.967024 24515.983979 24409.318851 12198.751467 15199.337927 15681.814706 16429.074496 3676.855043 4531.496951 27012.500450 27231.894823 21398.428740 26130.524404 20674.734303 15877.182337 13414.908189 14309.630192 -3967.986596 9976.827122 16378.709865 27812.049086 23817.830847 23120.523928 23476.190525 17954.968057 14953.777726 16793.746280 12505.007018 17533.312762 9229.190654 -189.960819 31345.352301 27042.195891 21495.303195 23736.188178 18501.615783 21476.411436 17477.300392 11338.647451 12108.753780 6634.190277 6399.451424 28285.983867 28436.150974 22160.803472 21395.186256 20719.248600 25660.102132 19185.211330 13423.240150 18976.379780 9318.140269 -6691.670445 27023.152621 28309.850957 22696.178642 21002.387683 14769.168431 21101.216425 17707.353295 16723.273219 9766.248284 2704.506267 5538.465024 26645.804352 25717.158684 26154.409443 20578.394681 24378.386792 20691.626207 15368.958795 17166.978268 18660.713711 13738.124996 9155.825695 27919.729021 26342.615615 22730.567009 26524.632909 19086.971604 22551.281303 17757.499117 16354.660689 11973.803698 5591.790294 15938.392581 27919.407104 28859.197081 28984.750773 30580.640862 27105.038416 19212.551558 18570.133712 20811.477724 14251.229572 11412.250517 13108.119831 29102.462137 31242.884537 23605.929162 25106.340081 22231.418676 22805.995760 22530.896120 20570.503500 17916.207120 14529.895431 4779.931095 29190.522549 25961.567835 26439.907197 21251.137618 25993.103499 21605.868442 20327.143301 14888.759259 12335.787900 15263.914189 17402.442066 30579.257195 27010.528202 26426.452126 25969.613067 24932.415337 21193.031000 14036.746647 16089.686987 14418.522828 14130.351922 2875.171123 23992.090163 29887.030436 23132.682180 22381.864958 22319.414630 15977.396846 22623.624676 14413.274172 18496.439817 18235.127849 -697.687287 29212.973220 31953.296741 24622.649036 29710.943087 20669.126850 19938.580084 17603.012259 21590.015629 20851.865136 13369.016554 16513.827365 28288.378083 20524.261354 26529.905944 26740.784005 27743.198095 21584.749291 26083.931980 12728.171725 14008.000271 16679.147642 12857.866330 30738.860086 35428.163226 26661.302553 35037.493817 25556.203320 26014.419379 24853.514793 11402.367343 15112.045426 9675.357737 13845.078451 30734.384299 30836.751707 24718.725930 31209.064348 26604.164317 16861.056619 30819.234941 25585.862386 19595.389042 8818.708188 14301.315696 10064.709365 14076.377854 14401.153803 11458.305192 7653.426361 11527.391313 10557.642956 11379.755748 15003.116915 11116.765282 7385.169230 6223.944655 4433.578370 -11209.520588 13191.677538 9336.407659 14396.166392 11722.739298 4160.715140 14150.233181 10638.735358 9331.998708 11818.427553 5743.509683 4643.620491 4652.518946 5780.338404 8384.923081 5445.159417 8986.093450 9101.835152 4358.439051 6304.375433 4808.006832 10027.066175 8709.841224 11155.567782 6574.904886 3787.927936 5329.826758 4411.201644 3812.839938 12048.930773 8138.506423 10930.875533 12481.292277 9348.614977 9700.385495 11895.083438 9790.948335 4084.066224 8044.315015 8567.413202 7319.934742 1876.132550 1028.532985 13870.482006 18178.482186 8766.471895 9317.942392 14507.558838 10690.972136 11375.001957 9923.273053 7487.368772 4452.018726 6234.603277 6773.409997 3560.767613 3857.465046 10199.245975 15523.704864 9399.440286 17880.271829 13558.556369 13152.481429 14993.126436 6733.720689 6703.123017 6885.878674 6670.438982 4671.821103 7320.293884 2775.898691 17586.111339 4336.591956 10299.281316 8940.542478 2569.907612 12038.078949 10703.262319 11893.208066 7582.763740 6069.276798 4014.608583 4373.621043 3751.055894 7045.105091 9575.621923 9472.732161 11342.643704 14990.744083 10410.922508 13540.741329 4684.930990 7007.093276 3113.890211 5172.533116 5786.534088 6476.573683 5445.694143 3050.535826 13074.292698 14591.986854 8669.696867 7337.617070 10048.002772 4384.870600 7346.912524 4830.356297 2721.745370 9296.211637 6357.058676 7680.462103 990.514194 4356.552661 6322.797732 7895.539250 10833.993799 7534.243194 11016.492668 5061.359445 10087.315619 6664.854040 12314.989925 5634.008970 3560.837517 4943.041743 1897.586329 1698.286960 6391.655119 9232.851215 15833.788408 12984.496002 5400.083316 5940.788581 3712.809501 11307.408212 8552.000727 8550.484393 11673.724718 5543.310609 2890.956426 3325.489771 10363.482940 3255.819363 6683.823460 14750.357882 3537.002848 10094.367129 2009.977050 11753.903880 4425.564687 9042.132560 7630.099367 13757.599507 1778.509639 4146.875049 4038.976627 3658.328212 3244.448900 8219.729858 4923.113681 4438.886922 6607.278201 14490.862319 14933.559837 7934.730178 3709.145848 4239.059855 3378.117314 3215.749752 1545.208405 6086.210755 2273.228241 3418.566620 4989.255790 1492.278470 5858.286200 7836.885596 5862.924942 11103.791408 6067.385273 4005.966684 5358.657132 3257.283694 2680.831167 2305.077913 2742.100608 2648.349262 2202.000370 1583.480881 7348.523237 2785.753969 2190.920268 914.163493 4616.855770 1867.236071 1847.275401 4261.186058
</DataArray>
<DataArray type="Float64" Name="Velocity" NumberOfComponents="3" format="ascii">