<VTKFile type="PolyData">
<PolyData>
<Piece NumberOfPoints="1945" NumberOfVerts="1945" NumberOfLines="0" NumberOfStrips="0" NumberOfPolys="0">
<PointData>
<DataArray type="Float64" Name="Pressure" format="ascii">
 23750.269919 21063.938899 21576.918218 19627.055257 20029.140735 19432.196150 18185.577963 18399.800417 19131.788432 18906.698988 18711.234414 18923.113140 20278.155042 21928.231947 20955.984972 20849.240941 21667.675541 21089.501747 22561.002569 21415.154076 22053.899948 21168.644917 21625.883994 20836.615565 22976.523315 21802.409057 20790.466179 20650.063223 23713.379253 23048.853792 23200.322658 20276.985549 25799.560829 21021.697700 26111.420623 22607.551849 23113.254730 19683.511046 25845.906254 23850.350998 18168.163620 18854.407796 22549.200484 23307.964378 19459.860761 19501.137963 22392.429495 21399.422641 19198.808273 18504.451183 19663.934082 19135.270067 20307.189659 21035.326872 18097.342880 21143.249649 23731.015333 24257.202661 22762.029167 21282.324460 23034.965801 22817.821622 22883.679093 22079.129355 24530.003743 22502.362942 27541.597681 24553.033199 25933.559896 22554.589373 24256.827351 22444.230244 22115.602170 22139.296090 21124.183427 22165.771840 22640.536873 22596.506953 21054.305237 20757.940612 23323.540741 23624.858809 20324.816014 19987.879721 19859.203924 20919.181794 22630.934701 25107.036259 21090.344741 23170.918797 24836.213304 24946.832165 24248.763269 23400.447226 22735.897368 22503.526501 23577.329185 23263.250298 22954.694706 22709.161147 24108.479085 24362.210609 23437.019570 23368.098663 22045.367945 21799.042522 23167.525914 22124.402465 22676.999285 21618.842458 22143.450299 22092.215064 22769.187917 23060.858580 21700.332456 18717.664339 23174.199100 20333.016332 18803.144883 18991.395125 19038.965273 19834.059209 17650.867683 19179.077667 17523.109344 18616.872019 15677.994620 17218.097345 16861.125672 18921.426199 15314.159420 17003.443253 18115.199370 19634.165018 15582.607461 17437.530808 17416.391732 18888.860039 16413.745998 18024.076110 17979.799518 19203.306798 17021.927445 16251.902459 19201.088828 18960.158896 17347.653583 17323.603893 17609.512309 17199.014413 18293.610896 17390.598430 16973.136451 16546.474808 15998.746436 17343.115371 16426.781340 17448.311753 17328.341354 18095.924053 17700.594260 16760.807897 19529.510217 17788.092974 18907.942028 17438.505556 19940.976084 18332.997001 15785.360326 16046.491214 17028.389878 17282.919574 17516.039853 15892.793945 19159.473190 18264.982326 15331.406275 15630.310011 15968.848355 17256.084447 15018.622387 16357.621613 16913.967314 16932.598857 18183.044593 16682.572213 18764.876909 16944.815748 19794.840466 17348.747217 18506.583050 17971.606447 18320.399794 18197.102097 17524.823828 17386.292511 17621.730762 17486.699803 17018.885463 16541.710942 17868.701896 17752.652927 16551.988907 17052.640321 15726.601461 15802.378286 15051.578182 16460.608792 15514.839478 16631.423160 19467.460626 18711.758685 18036.484724 16788.944472 15329.932705 13483.080288 11456.410876 9718.080055 7867.134452 6232.179061 4432.580834 3289.279318 2644.900226 1163.117379 -3448.416691 -5442.134141 -5427.930249 -4929.260525 -4380.913955 -3814.922654 -3288.482176 -2835.362908 -2469.661425 -2193.072871 -2000.428787 -1882.888128 -1829.559635 -1828.372896 -1866.712874 -1932.031824 -2012.460035 -2097.354494 -2177.717035 -2246.441709 -2298.386548 -2330.292672 -2340.589045 -2329.125463 -2296.872962 -2245.623394 -2177.711115 -2095.771272 -2002.541943 -1900.711784 -1792.810851 -1681.139965 -1567.734313 -1454.366437 -1342.655626 -1234.702826 -1137.227223 18534.750094 17397.572988 16444.620207 16052.627736 14718.552932 12498.279104 10264.695890 9081.006407 7633.186851 6358.235256 4137.743836 2214.360187 1634.463128 2288.692522 -5475.949126 -6330.554292 -5201.575325 -4876.879453 -4367.805048 -3819.422255 -3301.702881 -2852.313191 -2487.402702 -2209.992411 -2015.685993 -1896.042406 -1840.373440 -1836.735245 -1872.622629 -1935.597298 -2013.892598 -2096.949909 -2175.827231 -2243.442870 -2294.649119 -2326.157072 -2336.348843 -2325.018135 -2293.077283 -2242.261990 -2174.856567 -2093.454255 -2000.760154 -1899.438685 -1792.003443 -1680.744476 -1567.684918 -1454.548599 -1342.659178 -1232.334734 -1118.921306 17848.654119 15211.245582 15065.689789 14511.939750 11709.998966 11351.527973 11464.443625 9641.377214 11107.026002 9779.750311 5744.689320 6501.778117 4697.050233 3155.004024 2296.637170 1688.580317 1253.391207 933.882817 689.872408 494.515581 330.736366 188.190808 60.960227 -54.086480 -158.407567 -252.525269 -336.500204 -410.227030 -473.609624 -526.655888 -569.519883 -602.510559 -626.080515 -640.804008 -647.350442 -646.457271 -638.904690 -625.493308 -607.025257 -584.288705 -558.045485 -529.021442 -497.899074 -465.312084 -431.841522 -398.013175 -364.295493 -331.094687 -298.727216 -267.252900 -235.411116 16158.604016 14306.065644 13935.335963 13205.996608 11740.526063 10974.085654 10344.017008 9647.112955 9102.602957 7980.766568 6615.861915 5460.047093 4284.091524 3189.775166 2340.508123 1723.452145 1277.976541 950.343236 700.614719 501.497682 335.378440 191.457211 63.473937 -51.942238 -156.411380 -250.561659 -334.520889 -408.224519 -471.599442 -524.664791 -567.578247 -600.647700 -624.322033 -639.170522 -645.857225 -645.114454 -637.717770 -624.463797 -606.151357 -583.565948 -557.467302 -528.579652 -497.584296 -465.114093 -431.749588 -398.016613 -364.385695 -331.276348 -299.085892 -268.357557 -240.880935 -1065.588299 -1032.280103 -1036.244399 -1003.936304 -962.174628 -943.498370 -868.814383 -866.307348 -787.591105 -787.631383 -712.770563 -713.232473 -643.425381 -643.946309 -579.296301 -579.812843 -520.200022 -520.698657 -465.936831 -466.413132 -416.283646 -416.735382 -370.999490 -371.425372 -329.831871 -330.231235 -292.522311 -292.894979 -258.810905 -259.157085 -228.440006 -228.760213 -201.157177 -201.452169 -176.717513 -176.988232 -154.885428 -155.132958 -135.435998 -135.661522 -118.155919 -118.360686 -102.844142 -103.029440 -89.312232 -89.479364 -77.384507 -77.534774 -66.897981 -67.032660 -57.702150 -57.822487 -49.658653 -49.765849 -42.640837 -42.736044 -36.533240 -36.617548 -31.231014 -31.305456 -26.639322 -26.704864 -22.672694 -22.730236 -19.254384 -19.304762 -16.315723 -16.359707 -13.795481 -13.833776 -11.639244 -11.672497 -9.798818 -9.827615 -8.231655 -8.256526 -6.900311 -6.921735 -5.771937 -5.790344 -4.817805 -4.833579 -4.012867 -4.026349 -3.335346 -3.346840 -2.766368 -2.776143 -2.289621 -2.297912 -1.891043 -1.898059 -1.558553 -1.564473 -1.281790 -1.286774 -1.051900 -1.056085 -0.861330 -0.864834 -0.703654 -0.706579 -0.573414 -0.575849 -0.465986 -0.468006 -0.377454 -0.379122 -0.304507 -0.305878 -0.244346 -0.245466 -0.194602 -0.195509 -0.153270 -0.153997 -0.118648 -0.119222 -0.089289 -0.089732 -0.063962 -0.064295 -0.041624 -0.041863 -0.021399 -0.021562 -0.002575 -0.002676 0.015395 0.015338 0.032868 0.032832 0.049969 0.049929 0.066533 0.066455 0.082014 0.081851 0.095364 0.095059 0.104881 0.104356 0.108011 0.107165 0.101097 0.099803 0.079088 0.077185 0.035179 0.032464 -0.039611 -0.043383 -0.156916 -0.162047 -0.331576 -0.338423 -0.582242 -0.591230 -0.932040 -0.943661 -1.409276 -1.424096 -2.048164 -2.066822 -2.889562 -2.912771 -3.981678 -4.010218 -5.380715 -5.415425 -7.151411 -7.193177 -9.367435 -9.417170 -12.111574 -12.170196 -15.475665 -15.544066 -19.560214 -19.639228 -24.473648 -24.564007 -30.331149 -30.433443 -37.253028 -37.367652 -45.362605 -45.489712 -54.783585 -54.923034 -65.636929 -65.788220 -78.037244 -78.199430 -92.088848 -92.260182 -107.882085 -108.058135 -125.493245 -125.655659 -145.008436 -145.056114 -166.685788 -166.030931 -192.102452 -186.977605 -212.576002 -203.648897 -220.956837 -211.791207 17439.640456 19220.311284 16151.342324 20707.211515 17137.866176 14925.870261 19230.981600 17465.143099 16403.188526 17264.530871 15060.504174 20155.741432 22082.830832 16225.204709 21717.342434 11215.106901 8128.143241 14692.898644 15713.549897 17022.960767 14568.184346 12918.811895 21351.475113 20216.083695 21448.579798 16562.449533 17127.090135 21180.897716 13939.832364 16931.586301 16260.098171 4423.205973 15585.708262 19173.937372 21643.726674 21930.677799 9834.222350 17122.205595 15730.149683 17285.459778 8972.882849 17009.936728 12066.965342 16540.152327 16521.948503 10547.955771 19091.749170 21632.874076 18120.080303 17118.096291 20155.224666 16597.756964 8564.785462 12711.997822 17067.233537 21549.705997 19745.772440 20945.247065 20896.880261 18725.634434 19180.758282 21387.082259 19398.032440 19144.945807 16871.410490 19046.025517 19792.692971 20564.287680 22447.232688 18859.754358 18531.359057 20593.431878 20642.404017 21215.523568 21289.065349 19037.992261 12255.242441 18639.464740 18299.709056 24548.779382 19784.532650 19776.597851 19393.106815 17544.458865 17805.034169 20660.981558 11839.117221 15541.574680 20512.195484 21809.226156 13785.690992 17672.985260 21967.754781 19202.128123 18517.486013 20678.688445 21225.019366 9786.690268 14686.531380 20120.891310 20196.442536 21659.440417 22170.837375 14096.731079 19801.337297 15356.185356 18861.904899 24220.432284 6961.882678 17359.762116 19344.302846 19748.060256 19941.413349 11415.723598 22128.877711 16035.945985 21218.430567 11505.242637 12869.604791 8054.071178 8796.735305 20370.870990 19447.511213 12591.515847 20281.164042 12289.389198 15805.094008 12995.731118 15603.456546 15944.238874 18225.252904 14184.233039 23471.705287 21304.261093 20098.811531 20261.173330 15476.298026 20718.698754 13913.448700 10901.643441 19978.140903 18673.675820 14463.259294 24141.878436 20224.380697 24281.395214 24468.035050 20315.651779 18897.571121 17518.133963 13315.825035 18985.459926 12244.959885 14240.816603 21535.864080 20141.010189 22052.854092 20083.886034 19089.136562 22417.739669 16458.226717 16103.478829 10265.776400 11342.896208 12314.145805 23743.948073 19489.809145 20840.476644 15761.666361 13080.379271 15160.226722 16055.598020 14439.446487 7971.060000 6425.356953 6913.339533 19773.024764 20256.172420 21179.361783 20412.252187 20034.326005 17127.774454 14964.334422 19788.903235 12879.958229 3323.297995 3225.913650 19845.869912 18470.100536 22395.277671 16499.582133 12661.438904 8442.778610 8211.120305 8965.961665 7500.553663 7698.426263 5209.623774 19718.018512 17917.345519 17792.213226 17923.839504 18548.388863 8761.487873 15263.253505 9678.663563 9583.891149 7564.471585 6790.722746 22015.224260 19824.875376 19600.842568 18263.869934 11023.155348 12197.521777 10149.802788 8889.130202 4417.392401 -2995.642917 3237.663843 20672.618006 20826.511028 19694.489030 16964.486788 13793.924728 7429.371961 6769.894444 6147.975992 3736.652314 4323.510680 5247.775837 19535.756483 19855.431036 15837.475863 13688.152749 15382.852883 9103.544234 7661.693463 5924.195055 6859.369058 4190.677978 -1441.395739 22300.835437 21502.929217 21234.842792 15459.328343 15695.369697 15861.772221 7193.695373 8622.226295 5939.567324 8475.922791 8316.700397 21872.241321 21566.786447 16710.989535 17647.892018 11435.999875 14219.824310 16998.719227 13306.998715 9643.391749 7615.369536 4513.775608 20244.847094 17003.192517 18100.163543 17005.793986 15520.425119 15886.431249 10923.680088 3286.248473 14396.594990 8843.328915 4901.163210 21977.223612 19381.329409 19960.565243 22199.360669 18303.399804 12090.109755 11473.548173 11359.509020 10491.261799 4965.873672 4734.302947 22390.515091 17637.876957 21197.231252 16232.706624 19832.368003 8661.805806 13652.125850 4956.718395 5558.669542 4101.832010 11977.281908 18064.655796 17539.105260 15283.054218 15443.876494 12824.777789 18123.424882 12739.759190 14100.762072 4114.914421 8302.555600 9511.944280 20531.175083 22851.394201 20238.078950 17058.614930 16713.671213 9666.846948 9656.225504 11568.434500 7295.675737 11930.338840 2642.820811 21069.515700 21347.982925 12733.421297 9156.974166 17110.390591 8436.131987 8425.862833 7164.675235 10434.038565 7185.630456 6381.434690 22143.601983 18491.592905 22848.318808 17621.438895 16728.983317 8506.594759 15662.010341 9051.948118 8983.441756 9440.773171 5500.858519 22125.247038 22180.049556 20503.445480 18270.995176 18279.368833 15090.866736 11509.822867 11867.889165 10228.475681 9037.999615 7470.656058 20967.750946 11654.568702 20402.603395 15053.163477 16472.180697 13102.918266 6694.888609 8975.693667 5647.720947 6357.533857 8305.022085 21043.228552 19328.369632 21671.860870 15650.568192 17576.636778 11063.138578 6753.484045 7960.966620 4558.382126 8198.437559 7119.854866 21702.065622 18870.874396 19311.436518 15879.752167 20513.904385 10464.843418 10462.653236 6765.494081 5834.732457 7351.401587 7661.948660 23747.420978 23302.278564 20180.501430 15362.791428 12390.210314 14946.365109 8704.736095 16722.981588 4988.435042 6168.898552 4182.266106 22035.797370 18298.085804 15333.213282 16384.685326 23309.394392 13815.196113 11949.294416 10047.450086 12569.619435 10101.180516 4477.574002 20746.357331 23869.179696 18201.821094 17924.511480 12564.737339 12701.679003 13617.683497 12094.666775 15118.110118 6801.314321 8031.458246 23483.552656 23370.643648 19149.997377 13227.267763 17249.092719 10890.932169 12308.027557 7336.125858 8116.090836 6020.449923 4102.738750 22921.576206 15734.252705 21106.920434 16550.607173 8720.972752 12620.119461 9132.134892 8426.406764 6419.554365 10962.593745 3300.111051 22690.057467 19591.460827 21556.066715 19689.151990 19302.025389 11613.181313 5499.178151 7970.955612 11478.544091 2986.657534 5637.833231 20448.865887 19763.224651 16746.812682 18979.289625 13784.627242 14591.765919 16319.638221 8939.202133 7304.397555 2900.176701 5550.632069 20303.085045 20155.628294 18887.245065 14561.553299 18313.515002 9951.512835 14942.222905 12542.255521 10072.859883 5994.985538 7140.334312 22178.020929 22807.766247 18790.799729 20273.591619 14011.003297 13966.922651 8596.412116 9147.809788 7596.310500 6790.762498 7156.634943 23264.578151 20348.443085 17130.343654 9943.026314 13917.080965 13971.464432 8021.819005 16235.490469 7145.860801 9861.417825 3043.519282 19769.464244 19114.098244 18743.401170 7745.597176 9752.153473 9457.070584 9292.513379 11569.898302 6543.615384 8874.522168 4149.895682 22883.589949 15215.799759 13567.771466 18615.333641 10727.209833 17221.164850 12977.603679 7860.550485 7091.012104 8335.015511 2993.022342 23022.946221 21425.682490 16786.941824 18339.973573 13187.657783 13496.317867 8122.955730 16250.263419 10762.302669 5317.146537 5737.914955 21658.124981 18524.776897 16457.990603 14986.804297 9996.232573 14636.596060 15930.827241 9266.557551 10796.517756 6124.074177 4316.536139 18890.172939 16011.860078 19721.522731 15229.483585 14312.936085 12182.622460 15209.954310 11768.732367 14362.258347 6055.659961 6074.847901 17668.269577 14720.127038 19971.766912 16309.734555 14152.649579 16458.792455 10341.203216 13424.548150 13139.138082 7528.191676 3725.509671 21873.938738 20587.542474 18021.977574 14369.856185 19557.907109 14357.862797 14624.897300 12052.621263 9699.796381 6546.238916 6021.486384 19563.552250 18962.124787 17970.937530 18436.005343 13933.738921 14656.164586 12371.187884 10263.577374 12049.185941 5954.195850 7553.472029 19504.419633 18166.669703 18681.509781 18537.902323 18335.107440 15085.839096 8319.329441 14271.593752 7330.590660 7416.512768 5683.643550 21128.272517 20566.885152 20226.696754 15905.085237 10420.798483 9930.477503 9408.854235 9371.328757 5889.720164 5489.317135 5169.405429 18662.955360 17578.463640 22004.326967 16597.087432 14019.218933 12801.491536 8671.548764 6481.970800 7012.295690 5855.832205 5424.289704 19048.455082 22690.879294 18879.294090 11319.689829 9363.217245 11229.693359 10644.030252 7198.362644 8634.389389 6413.422613 4369.039915 18935.378548 19040.763872 15101.716061 9923.917160 15297.198236 11283.633054 12240.406552 6720.397182 9376.769568 6104.941783 6002.320369 19319.602847 16886.111066 15256.048847 17224.399648 14600.664232 12717.239515 12364.544824 14427.904870 7635.552348 6422.444168 7347.698714 19082.457393 15830.775002 18091.740129 17457.751533 14163.483938 13285.982231 13373.772491 14254.158213 8691.061286 6577.478175 6768.183292 20707.786380 16656.822179 17565.086805 14697.275251 14124.613467 13290.448809 9510.046567 4989.283774 7361.197046 8366.023734 5515.381460 19603.981421 17172.077399 17052.956947 12472.495707 14767.056750 11936.079957 7170.064421 7382.019969 8948.911886 7927.991979 3337.579457 20528.915828 20672.598420 16048.484237 16274.319302 13888.211843 16259.308105 17146.813109 7766.502030 6127.405523 5161.170458 5741.871662 18512.370803 19820.160557 20083.754841 15032.505074 17251.046551 14585.808652 11495.953490 11603.561961 6781.316932 7435.613781 4498.141353 19618.824110 16967.025718 20206.496825 18482.685240 13702.629188 15311.045078 14120.476031 8287.402384 9494.761294 8117.675630 5229.101296 18789.108428 20124.162715 17944.294576 14233.045422 11046.874967 14394.084296 14164.410520 8711.574218 11100.150409 5298.640306 4817.033142 18215.485109 20591.866874 17881.293645 16823.147292 14910.032969 17457.549539 11952.325786 10992.334967 5523.543992 8116.803918 3722.826954 19224.815485 16882.609822 15707.191941 16224.188858 14285.101973 10097.817670 10009.384515 10335.173937 8460.239473 5946.790532 2373.728350 19000.814980 18757.561091 14964.839399 14407.242327 12038.278772 11558.133094 14658.845864 9606.077155 12864.207390 5842.911371 2240.708953 18574.144622 19930.960288 20531.683971 16849.107111 11267.618440 11999.144542 12211.767513 6712.523169 7424.393316 10115.590010 4983.655799 19870.196472 18380.253310 15286.475957 14816.690611 12173.962539 14046.800423 10822.259079 14151.425806 8078.739105 8815.950782 2941.089647 16619.634833 14812.294497 19264.177908 17341.302076 14737.863033 12509.633639 12764.279144 10531.228287 12545.579412 8765.596562 7859.581176 17028.304863 15686.790471 17441.523267 13785.602723 11158.463927 13256.826117 13777.724421 8272.626784 11633.032045 5944.972207 3305.055298 17040.630774 17490.498052 14462.877760 19872.655906 15094.153835 15148.228158 11333.292543 8835.190410 7799.337294 5141.311485 3552.696477 17197.932011 17651.375007 15305.555355 17140.804365 15912.126045 13187.101348 11421.872108 9231.320387 8755.281595 7635.848126 3390.347759 15215.827466 17279.072841 16149.804818 17275.324914 13763.038650 11443.101073 15329.459094 5185.877384 9461.315606 9856.430116 4501.088260 17489.676944 17512.219330 15453.362870 18543.117645 14301.349803 12270.512614 10893.093444 10186.689658 9882.133127 8760.137310 6644.047284 16914.888770 18419.583934 17848.463021 16356.500812 16127.386278 12501.268882 11973.677777 7588.038176 8038.001492 6441.012878 6840.347863 17943.584253 13511.242830 18067.292438 13412.337458 16388.146774 14886.725730 16186.139150 12479.181236 10167.621879 7669.867904 8670.686603 16045.709048 14549.614483 15243.055585 17652.070476 13565.038707 11611.389009 11852.127934 8144.850360 10702.591177 5657.071930 8263.087700 17513.435893 16005.816453 15727.324086 15982.359528 12587.221271 13718.632447 10579.084348 11293.458441 12488.870557 5653.085155 3072.176733 16280.404190 16805.040507 14685.664819 16221.778047 14937.849849 14943.446584 12436.265981 8943.913035 11568.662243 10344.322856 7472.810263 18093.797144 14877.794737 15347.078317 15407.601494 15619.152671 14455.042926 12169.032677 9489.873044 13940.888099 9048.002302 3867.877748 18426.582705 15761.981310 17344.050597 16050.395215 16157.516386 13560.029688 12359.829045 14444.380305 8104.048213 8409.283079 5686.015353 16578.022501 16324.215698 15791.992617 17312.557398 15601.856633 11509.637378 14229.921932 11991.576763 11797.345173 9116.842862 5268.342084 16768.844489 16367.946832 13048.425875 15874.335206 15907.785731 14425.914526 13529.872341 11576.317985 7561.231535 6250.157028 3529.372052 16542.481324 16500.213694 16084.476249 16314.746559 15288.854913 12381.401334 13418.283619 11698.531154 7912.423023 6704.396877 6051.777848 17032.691418 18598.409341 15876.188026 16264.559691 13194.316256 12955.888284 8682.691999 10320.085222 8824.345260 5221.920642 5477.586921 16149.460457 14210.344487 15526.869695 15609.125454 14986.325415 11422.637493 10917.461964 13587.149669 8932.870603 7180.313334 4088.966178 18838.807573 17173.768043 13020.569900 15334.050932 10190.926953 11123.271257 13574.871119 8049.082768 7940.959518 5479.165270 6736.237575 16381.004741 18870.335339 15516.375245 13241.032043 10032.499488 10474.213802 11406.490563 7204.328665 10242.371329 8857.738357 1870.421565 15588.734009 17426.080189 10927.622141 15217.310891 11108.463913 12183.876333 8121.664772 13013.394501 5427.034269 5783.985731 4808.253147 17475.665005 18078.262177 15807.743325 14958.443194 15624.655620 10802.583722 11509.040456 9893.602267 8116.701294 4729.887217 4339.951328 17730.720664 14723.352020 14613.338702 15057.211141 15415.079931 14223.387051 7307.049339 13550.435974 6811.527891 6850.050834 2278.513066 17505.474632 13881.913080 13377.846750 11635.421824 15639.978615 12588.658842 11246.868984 8934.142078 4212.082926 5955.784193 4873.997623 17240.027613 16582.027813 15610.299364 12352.505860 11858.646917 10852.458613 10434.997012 8323.292576 5645.100354 7990.494447 6200.907991 17306.690044 14876.409466 17190.782938 10937.342385 12591.697191 11473.448613 8416.949261 9863.177807 6524.217359 5256.524073 2684.147283 16711.946182 16699.114451 16232.049685 14800.226212 14780.865042 6875.828970 9711.645015 9472.939237 8277.981860 4624.474185 9202.753374 16320.090715 13851.423142 13797.472811 15572.524144 12798.331642 10662.088633 16669.621655 6221.154017 10686.260232 6706.735237 5898.388848 17105.801034 16228.683378 16665.605635 14731.315749 11141.223201 16480.391421 14406.964840 8786.967975 8265.301092 5783.147803 4470.633793 17603.834726 17211.018477 14252.773835 14146.023703 14750.327093 12627.237497 13114.236192 15129.681879 4759.093337 8417.573626 7040.987787 15142.595690 18921.969576 19167.740536 15929.491592 8777.817436 13820.089078 13219.398217 16884.482353 16300.435442 12030.151277 9975.952050 6403.685168 2477.734062 6952.443683 19679.109988 8118.167901 16460.811386 15271.207012 8063.305776 21721.730825 10961.779873 5781.166737 15680.977979 6788.543100 8225.505146 4757.281679 3649.279452 9106.304371 7390.390275 13567.886254 11006.480865 6990.374720 5251.415450 8171.219853 9118.878566 11266.342729 13761.332380 4498.290029 5815.787543 3540.380511 5779.794426 3624.282588 15631.106271 11469.453154 11846.407053 11670.486012 14317.681039 15785.876122 12522.065041 14781.955786 5303.454837 14606.856530 9075.070307 9281.131484 5780.745848 3513.977917 13768.717104 17318.884550 14214.950307 11120.031754 17859.307726 13632.293889 15409.203595 9726.827901 11499.787202 5118.085192 8203.851814 8125.499408 4631.816944 1656.756300 14766.862707 20057.865718 9449.270130 16028.579082 15738.433334 17907.889180 18434.554444 9252.372030 10303.955480 7362.959230 8422.799226 6604.092866 12860.015123 2334.398683 22285.665015 5766.533244 12970.729567 13300.022607 7080.410191 22098.458054 16824.666495 16516.493132 12586.337666 8666.856771 7687.925867 5924.719935 3006.774419 3234.664849 8459.171023 10910.365550 10735.752153 15988.734296 12722.621593 12722.343989 10420.070564 9728.734199 5695.248597 7699.937286 12020.941428 5766.378034 3648.423212 3125.001842 18257.714819 19246.543159 6571.237952 5795.895668 12078.436799 10141.428804 9963.651377 6582.917027 4217.316225 11220.485375 13004.397654 9199.219113 5179.227580 4892.673998 7379.720617 11530.488981 12907.184027 8721.367259 13848.935465 10352.628239 11391.496293 9904.126720 12341.583746 6728.694177 5552.192145 4504.607417 3591.092857 4796.653175 7650.746071 11517.161550 20764.654208 16095.236652 7313.801268 7121.636838 8885.004103 14688.703019 6361.825928 12422.470212 16999.670599 10892.245658 4282.391810 3635.766832 9330.967071 7769.071522 10364.819042 20654.686700 8867.952914 14092.151127 6441.962712 13014.955132 7504.337969 9622.767298 12362.042711 18635.964216 3985.253527 6137.584920 8227.831123 4296.058240 2752.186214 11255.705372 6567.595812 4383.740648 10242.201502 16471.654616 16604.516825 8997.630454 5625.347899 6897.000595 6691.298935 2356.705937 4763.378166 9307.490448 6789.476618 7221.816985 9514.135628 6055.809493 8486.042827 12438.355313 5660.768673 12695.838364 8203.993302 4707.844703 3359.757653 5799.685439 3637.163005 4325.208133 4658.699567 5822.210375 25.673425 4311.588047 8607.557184 5063.190482 3500.522227 2255.146692 4841.038273 5795.798945 4919.183192 4624.518531
</DataArray>
<DataArray type="Float64" Name="Velocity" NumberOfComponents="3" format="ascii">