<VTKFile type="PolyData">
<PolyData>
<Piece NumberOfPoints="1945" NumberOfVerts="1945" NumberOfLines="0" NumberOfStrips="0" NumberOfPolys="0">
<PointData>
<DataArray type="Float64" Name="Pressure" format="ascii">
 33773.257627 30600.679914 27846.821158 23102.369644 31362.467761 27603.948703 34652.325961 29528.061962 31648.194532 25236.636350 35300.580221 28320.659864 38125.451193 31139.196224 38261.407582 31172.874492 35576.574873 28536.033589 35904.528059 30578.951998 35343.716646 30974.220341 34480.797064 29772.988803 34503.159483 30083.833749 34213.986947 29914.406842 33908.268826 29880.871296 33180.043488 28892.748974 32554.173926 28173.447042 32012.501927 27776.200790 31750.109738 28089.430760 31574.075863 28773.717217 31390.894846 29492.057058 31120.251625 30137.816209 30787.720517 30726.908256 30425.834338 31327.795553 30058.508803 32066.775818 29626.101143 32774.398253 29063.677757 33676.181316 28331.133478 34474.500861 27417.143902 34986.032552 26346.716135 35052.981163 25165.929013 34642.135585 23926.921023 33873.468785 22665.690485 32906.135377 21402.026733 31841.921569 20146.548263 30710.301018 18914.181603 29524.310570 17719.172394 28272.442343 16583.776789 26972.636325 15542.580413 25680.487669 14594.667817 24389.825860 13758.958827 23189.526448 13040.581828 22254.557474 12447.706526 21308.762865 11955.012637 20492.789261 11554.180190 19809.816826 11232.725660 19248.887316 10977.506604 18794.356553 10776.197560 18429.066583 10617.913899 18136.466228 10493.341882 17901.719547 10394.645059 17712.149729 10315.296193 17557.337560 10249.920266 17429.094299 10194.194874 17321.437252 10144.827211 17230.615463 10099.605832 17155.166606 10057.507259 17095.936841 10018.820567 17055.966556 9985.238587 17040.140774 9959.855001 17054.527024 9947.006842 17105.376233 9951.915567 17197.839983 9980.108903 17334.547427 10036.649020 17514.270963 10125.244289 17730.976811 10247.369684 17973.541190 10401.559305 18226.346246 10583.038770 18470.893743 10783.813703 18688.062373 10993.324036 18860.917367 11199.537236 18977.352203 11390.375012 19031.473512 11555.262326 19024.716983 11686.279405 18964.442357 11779.061989 18862.357209 11832.963730 18732.102536 11850.327667 18587.126949 11835.961015 18436.328888 11797.013210 18288.400946 11741.266033 18152.040120 11675.775120 18025.106808 11605.502277 17901.998827 11533.347835 17772.810112 11459.960879 17625.020088 11381.378696 17443.743493 11291.045288 17207.632541 11180.948678 16914.251542 11037.090766 16533.146091 10857.515399 16098.813593 10624.752683 15606.892608 10336.115132 15005.739482 10004.454369 14459.136506 9603.706643 13797.185090 9163.380690 13179.986770 8680.743324 12532.682079 8163.787572 11929.446809 7628.730463 11304.411759 7203.873757 10893.869678 6595.100026 10604.982424 5755.180530 9206.596136 5467.540156 9018.225113 4910.261455 8493.372630 3676.027490 7487.688318 2373.908178 3256.649747 2219.903748 1714.221756 31763.371679 29893.013543 29346.646008 27872.581946 26687.547129 24524.117619 21537.415764 18694.794569 16123.007452 13667.897152 11437.261903 9572.114143 8076.774385 6856.187409 5810.402899 4843.328885 3924.183526 3213.247084 2526.327545 1648.505917 1121.787870 2254.560174 -463.899788 -4214.815284 -4139.676344 -3634.379995 -3119.639800 -2577.822366 -2028.338757 -1519.288250 -1085.884493 -742.993734 -488.355556 -309.359914 -189.437973 -112.432443 -64.823842 -36.379613 -19.907058 -10.637278 -5.557732 -2.842581 -1.424715 -0.700408 -0.338029 -0.160279 -0.074719 -0.034264 -0.015452 -0.006821 -0.002921 25534.831498 22959.606027 23019.738980 19605.631453 19197.350519 17935.747218 15042.244155 13221.955268 11582.106122 9519.346944 7335.779546 5673.264280 4472.568639 3658.969178 3095.517335 2675.336052 2142.855441 2137.903782 1886.629327 1196.602955 -1109.685759 54.966061 -1251.952370 -6097.737592 -4194.187687 -3540.691396 -3096.447932 -2572.536433 -2034.489144 -1533.127564 -1103.376447 -760.656736 -503.925458 -321.820937 -198.694429 -118.904904 -69.125506 -39.116100 -21.582110 -11.627902 -6.125584 -3.158912 -1.596333 -0.791250 -0.385017 -0.184061 -0.086510 -0.039996 -0.018180 -0.008054 -0.003202 4254.272678 3959.783480 1428.444048 -8.282138 360.687211 -390.785673 -670.336770 -114.843624 853.727748 -2742.769441 -5861.069288 -3082.784967 -555.567756 13.664271 176.099632 163.621207 102.065922 45.560612 9.273116 -8.501808 -14.172828 -13.612380 -10.703960 -7.506961 -4.866383 -2.971511 -1.728890 -0.965839 -0.520907 -0.272338 -0.138461 -0.068631 -0.033235 -0.015752 -0.007317 -0.003336 -0.001494 -0.000658 -0.000285 -0.000122 -0.000051 -0.000021 -0.000009 -0.000004 -0.000001 -0.000001 -0.000000 -0.000000 -0.000000 -0.000000 -0.000000 1290.073703 836.548694 -326.982173 -1009.794210 -1250.670138 -1433.030173 -1408.294133 -1164.978344 -989.112792 -1629.539303 -2010.523918 -1391.627591 -571.526607 -50.273673 136.226195 148.100886 99.813013 48.304148 12.732741 -5.911017 -12.679340 -12.947723 -10.527483 -7.559946 -4.994417 -3.099582 -1.829732 -1.035856 -0.565654 -0.299231 -0.153853 -0.077090 -0.037724 -0.018062 -0.008474 -0.003901 -0.001764 -0.000784 -0.000343 -0.000148 -0.000063 -0.000026 -0.000011 -0.000004 -0.000002 -0.000001 -0.000000 -0.000000 -0.000000 -0.000000 -0.000000 -0.001343 -0.000719 -0.001258 -0.000698 -0.000731 -0.000488 -0.000282 -0.000263 -0.000119 -0.000123 -0.000052 -0.000055 -0.000022 -0.000024 -0.000010 -0.000011 -0.000004 -0.000005 -0.000002 -0.000002 -0.000001 -0.000001 -0.000000 -0.000000 -0.000000 -0.000000 -0.000000 -0.000000 -0.000000 -0.000000 -0.000000 -0.000000 -0.000000 -0.000000 -0.000000 -0.000000 -0.000000 -0.000000 -0.000000 -0.000000 -0.000000 -0.000000 -0.000000 -0.000000 -0.000000 -0.000000 0.000000 -0.000000 0.000000 -0.000000 0.000000 0.000000 0.000000 0.000000 0.000000 0.000000 0.000000 0.000000 0.000000 0.000000 0.000000 0.000000 0.000000 0.000000 0.000000 0.000000 0.000000 0.000000 0.000000 0.000000 0.000000 0.000000 0.000000 0.000000 0.000000 0.000000 0.000000 0.000000 0.000000 0.000000 0.000000 0.000000 0.000000 0.000000 0.000000 0.000000 0.000000 0.000000 0.000000 0.000000 0.000000 0.000000 0.000000 0.000000 0.000000 0.000000 0.000000 0.000000 0.000000 0.000000 0.000000 0.000000 0.000000 0.000000 0.000000 0.000000 0.000000 0.000000 0.000000 0.000000 0.000000 0.000000 0.000000 0.000000 0.000000 0.000000 0.000000 0.000000 0.000000 0.000000 0.000000 0.000000 0.000000 0.000000 0.000000 0.000000 0.000000 0.000000 0.000000 0.000000 0.000000 0.000000 0.000000 0.000000 0.000000 0.000000 0.000000 0.000000 0.000000 0.000000 0.000000 0.000000 0.000000 0.000000 0.000000 0.000000 0.000000 0.000000 0.000000 0.000000 0.000000 0.000000 0.000000 0.000000 0.000000 0.000000 0.000000 0.000000 0.000000 0.000000 0.000000 0.000000 0.000000 0.000000 0.000000 0.000000 0.000000 0.000000 0.000000 0.000000 0.000000 0.000000 0.000000 0.000000 0.000000 0.000000 0.000000 0.000000 0.000000 0.000000 0.000000 0.000000 0.000000 0.000000 0.000000 0.000000 0.000000 0.000000 0.000000 0.000000 0.000000 0.000000 0.000000 0.000000 0.000000 0.000000 0.000000 0.000000 0.000000 0.000000 0.000000 0.000000 0.000000 0.000000 -0.000000 0.000000 -0.000000 -0.000000 -0.000000 -0.000000 25449.260174 27986.727356 24315.820830 22194.307150 20974.052303 18666.474307 17564.611066 15489.648388 13848.541184 12026.183143 10775.955003 26703.081355 27693.415367 23227.503423 23720.649044 21335.933751 21083.802467 18735.680247 17939.738685 15533.746768 14403.188287 12529.250609 26923.552597 27335.149325 27712.657505 24548.653673 24481.555090 20346.427428 18804.220011 16998.294615 15574.395893 13929.836215 12319.154043 25844.448155 25798.265701 24633.133164 24631.052677 22730.765058 21502.931517 18962.368615 17325.642152 15422.134846 13919.750732 12549.077673 29995.680622 27771.659406 26649.077239 25462.457674 23516.411888 20152.530509 18837.137732 17026.663222 15950.152435 14274.733030 12301.728337 28440.506469 28895.932352 24852.598004 24404.439508 22048.515546 20923.144122 19494.124708 17338.196901 15291.057146 12958.123463 12461.938609 28328.812985 26822.831068 26464.164552 25107.155684 22922.682920 20950.009248 18550.083449 16858.555918 15979.227436 15342.305121 13178.475971 28574.934383 28246.535753 26719.040867 25041.025170 22400.198627 21094.904500 20271.359261 18657.140654 16379.369495 13575.367814 12730.936334 28602.149359 28616.554392 27343.955096 24955.978265 23685.709114 23166.564938 20000.717894 17222.191933 17320.910162 17372.271194 15423.570086 28779.952812 28346.382091 26950.009259 26437.584292 24941.684885 21745.466533 20873.744069 21628.503850 19551.856412 14601.683868 13701.304659 28073.887316 27927.677165 28298.898145 26873.519943 23757.710464 24423.284896 23956.898553 18509.464300 16821.895588 20196.201012 18611.718895 27375.231486 28703.708057 29173.839914 25979.530831 25796.391971 25718.413430 20514.360200 21325.734062 22925.465552 14961.412581 10385.070801 26896.040254 29636.394171 28362.413368 26178.968361 27603.843186 24032.658147 23054.752275 22945.662715 13919.727289 18637.026426 23319.740575 27848.663935 30846.110209 27586.115214 28262.125771 27912.631380 22580.310280 22708.311388 18458.817088 20942.575667 15477.426096 12228.163867 28808.325707 30613.494669 27200.237229 30257.928078 26214.911214 23584.291859 24979.243250 18005.226977 17019.228154 17699.813542 16322.970991 30037.732647 30562.140673 28250.106582 31087.484099 23569.994310 26114.233277 23119.426385 17921.082586 24638.677235 15138.554653 374.592090 30897.316177 30503.127778 29558.295845 30260.178437 23692.448586 27786.948947 16917.110416 23613.964211 10418.905313 21388.997717 11849.670574 31351.814354 30701.192948 30398.230424 28892.369976 25923.768981 25644.962964 19632.187013 20569.794444 18243.426307 15147.775878 1918.041641 31768.075870 31337.543248 30792.404081 28634.640849 27868.428528 22079.301933 24976.329905 14274.235062 21740.356166 7691.133270 770.740695 31935.437354 31716.247519 30631.635798 28699.811163 28401.643825 21900.214179 24862.690154 14189.890915 17629.168480 13527.173359 -5749.877984 32078.273720 31711.372832 30518.172642 28609.853885 27526.011760 23545.000054 21413.925391 19509.906112 12223.262937 14809.640688 19173.796585 32401.061067 31391.240751 30397.484325 28133.820521 26377.760460 24360.651092 19767.709044 20864.594401 8646.281782 15883.791932 19991.912853 32919.556262 30948.568809 30068.535266 27473.382211 25201.103673 23675.412986 19732.820663 19363.841915 11212.851433 15008.614760 17806.996095 33628.217833 30730.432162 29566.926683 26762.747345 24052.051596 22101.540006 19404.732260 17443.313384 13663.799810 10893.192599 19965.359668 34480.720378 30757.297658 29124.738803 25975.971673 23035.386177 20525.485029 18108.108234 15445.868595 13804.988471 7916.481202 18069.645722 35244.096515 30863.499857 28895.380043 25347.090089 22125.988159 19343.973754 16724.147752 13623.196058 12242.925403 6617.448907 12715.172394 35682.239039 30926.547669 28796.930014 25044.747434 21541.878037 18425.889741 15668.399548 12330.985480 10429.855341 5785.079114 8377.142252 35634.023552 30837.437161 28689.833756 24872.025759 21371.932321 17876.463910 14958.234275 11541.706508 9257.433842 5160.305979 5628.008589 35036.715508 30488.773461 28483.641390 24602.987469 21338.488632 17620.094031 14627.018238 11145.967820 8629.687147 4744.058217 4098.183847 33973.332722 29811.059653 28078.818123 24124.090990 21182.786828 17359.688540 14426.273992 10947.874798 8038.957674 4460.347514 3304.744687 32628.959928 28823.347706 27411.188886 23374.255773 20775.335466 16929.211557 14105.699397 10688.891083 7711.267856 4451.103295 2896.499996 31183.636856 27620.800571 26510.424272 22379.492928 20079.857228 16285.859550 13581.109228 10293.138837 7365.409539 4283.383615 2655.703871 29759.180747 26317.767227 25455.091588 21243.801867 19166.432713 15472.827063 12879.635193 9767.959756 6946.818143 4071.746094 2454.449807 28392.197973 24996.926094 24322.220122 20076.825453 18151.826236 14586.076863 12087.556822 9169.565430 6479.805771 3819.319942 2256.685656 27083.279061 23718.019178 23176.533441 18951.195626 17129.548992 13709.882668 11291.697114 8564.065154 6008.851730 3553.561455 2065.384229 25814.088563 22509.653574 22054.339236 17896.668514 16149.847938 12888.155514 10542.268095 7992.781139 5566.342535 3299.074804 1890.396548 24572.645349 21343.094038 20962.635353 16914.606110 15228.198048 12130.169897 9853.993079 7468.442553 5163.658100 3066.593794 1735.600095 23376.743170 20229.440904 19909.117627 15995.832531 14362.710985 11427.985722 9222.242524 6987.336805 4798.727319 2856.617450 1599.372717 22201.325086 19184.334725 18906.135395 15134.454341 13550.270390 10772.554821 8638.549879 6542.054151 4465.515206 2665.684349 1478.074298 21178.465686 18219.494929 17968.580468 14333.485058 12793.768023 10161.433130 8098.955812 6128.756540 4159.899168 2490.760754 1368.670390 20257.895094 17350.279085 17113.558877 13601.712902 12101.082824 9598.682649 7605.057148 5748.396509 3881.114005 2330.769581 1269.647754 19452.013074 16586.147420 16353.745039 12948.241566 11480.955080 9091.110811 7161.244955 5404.587290 3630.554850 2186.194249 1180.734476 18763.713207 15929.056940 15695.285780 12378.861025 10939.240882 8644.322623 6771.394013 5100.859780 3409.922067 2058.017662 1102.187363 18188.205253 15376.495415 15137.718637 11894.147045 10476.954537 8260.374561 6436.743992 4838.805443 3219.858422 1946.818073 1034.172189 17715.115589 14920.186303 14674.401345 11489.535632 10090.278033 7937.300361 6155.333995 4617.476243 3059.426032 1852.335371 976.439425 17330.550637 14548.185996 14294.674078 11156.763548 9771.797469 7669.898732 5922.547926 4433.726280 2926.253649 1773.462248 928.274106 17019.703955 14247.197136 13986.072515 10885.660946 9512.144976 7451.043672 5732.159318 4283.008301 2817.033654 1708.486580 888.615379 16768.545552 14004.233182 13736.078529 10665.732244 9301.501429 7272.983433 5577.411422 4160.238834 2728.098067 1655.418110 856.240670 16564.766197 13807.663334 13533.298348 10487.301556 9130.718667 7128.361619 5451.887077 4060.516427 2655.912896 1612.289519 829.943084 16398.235436 13647.780971 13368.149781 10342.221569 8992.034037 7010.896140 5350.096599 3979.619954 2597.428844 1577.381023 808.666983 16261.185842 13517.058501 13233.203075 10224.239417 8879.449477 6915.755321 5267.805824 3914.294763 2550.285499 1549.356613 791.591562 16148.266457 13410.216146 13123.301021 10129.119396 8788.863362 6839.697434 5202.155099 3862.362417 2512.889248 1527.318335 778.164580 16056.529267 13324.174141 13035.531344 10054.587241 8718.017080 6781.025204 5151.611795 3822.686851 2484.386198 1510.789550 768.092044 15985.341932 13257.902207 12969.069835 10000.117989 8666.282474 6739.380471 5115.779415 3795.016528 2464.544582 1499.637268 761.289694 15936.170928 13212.142491 12924.874974 9966.561169 8634.292692 6715.387262 5095.074472 3779.714538 2453.557562 1493.944100 757.802825 15912.160199 13188.970883 12905.204243 9955.594744 8623.419440 6710.155672 5090.288146 3777.394961 2451.783048 1493.845573 757.704607 15917.446172 13191.179232 12912.941793 9969.026000 8635.126501 6724.685957 5102.074909 3788.505288 2459.452453 1499.358327 760.989530 15956.199831 13221.503306 12950.771887 10008.006770 8670.275167 6759.254700 5130.447062 3812.924411 2476.399825 1510.234804 767.485141 16031.463595 13281.778227 13020.290900 10072.287166 8728.505240 6812.905510 5174.386411 3849.669637 2501.876424 1525.884011 776.807629 16143.941372 13372.160167 13121.206393 10159.675895 8807.843881 6883.184071 5231.691357 3896.806757 2534.511349 1545.388613 788.380273 16290.974168 13490.579503 13250.792610 10265.873347 8904.675138 6966.227695 5299.141143 3951.620627 2572.447969 1567.622641 801.516139 16465.965288 13632.570442 13403.738915 10384.772589 9014.113077 7057.224190 5372.966670 4011.025059 2613.630209 1591.436421 815.540718 16658.507732 13791.583658 13572.481958 10509.228755 9130.706670 7151.130105 5449.493773 4072.086458 2656.144833 1615.838835 829.906560 16855.288128 13959.691759 13747.925911 10632.109815 9249.265146 7243.433656 5525.739961 4132.464593 2698.479809 1640.089593 844.242540 17041.673787 14128.476632 13920.300984 10747.241829 9365.422576 7330.632735 5599.702486 4190.577712 2739.579569 1663.640640 858.295902 17203.934107 14290.175429 14080.281467 10850.205529 9475.823016 7410.236717 5670.139213 4245.359612 2778.653540 1685.940864 871.773956 17331.080248 14438.112227 14219.596467 10938.528300 9577.910992 7480.454044 5735.984720 4295.677262 2814.791505 1706.192721 884.159360 17416.578325 14566.966346 14331.215013 11010.917774 9668.968797 7539.481414 5795.676499 4339.750511 2846.583566 1723.184205 894.604093 17459.465564 14673.340551 14410.406174 11067.231716 9745.588041 7584.767730 5846.508116 4374.849029 2872.017762 1735.330897 901.973814 17462.869971 14753.786980 14453.484393 11107.212735 9803.719627 7613.286351 5884.588156 4397.375630 2888.747377 1741.006718 905.070744 17434.368552 14806.403781 14458.789037 11129.430628 9837.949477 7621.852841 5905.668617 4403.504069 2894.563611 1739.029851 903.011872 17382.699884 14828.943979 14427.102068 11133.486861 9843.317286 7607.554304 5906.126728 4390.291134 2887.913007 1728.987512 895.579688 17316.612020 14819.925524 14359.548005 11117.557303 9816.824391 7569.162997 5883.775554 4356.652615 2868.374157 1711.266576 883.280357 17243.668786 14781.000542 14262.298699 11080.555522 9757.202420 7507.710357 5838.324179 4303.489707 2836.688075 1686.820325 867.112222 17169.096351 14713.347250 14142.597161 11024.398110 9666.568811 7426.407753 5771.533918 4233.268633 2794.184837 1656.626728 848.188785 17093.864476 14620.332754 14006.468053 10950.339124 9549.527172 7329.578339 5686.427353 4149.280656 2742.213197 1621.213695 827.218943 17021.733579 14507.838602 13862.274322 10860.715430 9411.991706 7221.573505 5586.186144 4054.501127 2681.590765 1580.590081 804.164151 16949.383547 14379.390486 13714.304364 10757.191607 9259.867524 7105.374363 5473.646120 3951.648735 2612.633498 1534.432937 778.531672 16868.768017 14234.636921 13563.123614 10637.641964 9097.048958 6981.440404 5349.639705 3842.520278 2535.879290 1482.709045 749.916378 16772.926238 14075.775434 13407.915416 10501.932616 8925.470801 6849.748916 5215.214270 3727.465951 2452.147326 1426.455885 718.183268 16648.079848 13891.995861 13236.929944 10346.137796 8744.099637 6708.811629 5073.253430 3608.577529 2363.464414 1368.443872 684.085926 16482.755304 13683.584752 13044.429365 10161.120064 8548.990639 6553.396403 4921.238132 3486.831535 2271.873011 1311.945070 650.090366 16267.602943 13448.204697 12829.809053 9950.593460 8344.058642 6387.573466 4762.270063 3364.765975 2179.925321 1259.004779 618.601322 15977.083495 13157.531781 12561.623125 9697.529313 8117.016674 6206.740210 4599.149346 3244.676936 2091.163224 1211.891876 590.347007 15649.310993 12862.482434 12271.636323 9419.585306 7868.944408 6001.799180 4424.693919 3121.377967 2004.368935 1172.533565 567.211669 15221.346846 12492.010323 11909.968206 9103.658201 7612.472685 5796.294577 4259.100135 3005.777960 1919.385744 1137.053988 548.664197 14693.928070 12101.430968 11514.930712 8752.310169 7312.786886 5546.677038 4064.938681 2879.470332 1833.482817 1104.096204 530.386629 14202.151596 11693.333524 11082.424403 8393.424859 7022.352315 5316.320304 3891.204434 2763.338742 1751.860707 1076.112122 518.172058 13579.243992 11164.630459 10575.829292 7989.962661 6682.911978 5045.702597 3697.541279 2633.570899 1654.821376 1030.802482 501.265617 13089.553790 10765.579726 10122.764943 7626.744775 6358.267818 4776.523204 3492.171850 2502.290120 1582.286932 1009.626646 481.023501 12489.179486 10165.237716 9533.140003 7198.137651 6007.315382 4538.608537 3333.215399 2377.728453 1460.849474 941.711426 466.560347 11992.467927 9797.127809 9132.851072 6867.033618 5667.982886 4225.896083 3070.979886 2239.163583 1407.211414 912.194212 430.517043 11474.464999 9171.443041 8486.778447 6402.582544 5302.058627 4027.967953 2964.354117 2067.998789 1234.413410 853.267136 391.567039 10998.506263 8690.803936 8201.231386 6174.702995 4995.611307 3700.666816 2700.861782 2036.438682 1207.698981 797.517296 376.820923 10636.858129 8087.909512 7481.392574 5565.086103 4516.111654 3501.111693 2324.778671 1645.548800 1023.005286 633.340228 308.407045 9917.079088 7488.343329 7267.216250 5597.360571 4389.268422 3253.479122 2615.354485 1779.112675 1030.970896 778.750886 234.512027 10145.942012 6999.674163 6323.525046 4364.901833 3665.860683 2613.920624 1558.356005 1274.375800 567.245782 543.898725 199.169275 8048.563937 6617.762366 6003.402710 4817.012314 3431.520443 2985.609640 2036.988331 1336.012340 801.557613 383.151436 85.103679 10174.382666 6523.070602 5553.891501 4271.367848 2751.860003 2018.611300 1403.073369 928.093666 578.946350 488.224655 94.090087 5292.295865 6037.315236 3406.182035 3493.861336 1789.053020 1287.891662 470.318353 515.797356 -457.413905 -378.237271 -640.721052 7740.543938 5338.489484 6328.640230 2763.150610 3117.760133 2185.558351 1476.900982 953.421826 876.270892 14.917968 885.891135 9567.240464 8273.691618 7190.787081 5950.702175 4787.302539 3771.017430 2984.354348 2347.408798 2055.723587 1626.148700 1485.100450 1097.094892 1242.286525 830.019622 11172.927369 9517.394642 8146.621182 6774.880525 5792.553716 4929.513883 4222.187054 3610.754165 2943.919834 2462.631574 1837.302475 1165.628650 -39.010955 447.126558 10928.020900 9356.856396 8091.994503 6846.859720 5806.914391 4902.220542 4087.996357 3717.189883 3179.348488 2897.271835 2174.579246 1835.515179 1030.089929 450.344220 11228.054618 9661.759175 8454.699011 7341.725267 6374.027655 5614.209092 4797.222850 4294.648824 3512.058324 2903.281421 2707.898295 1360.895429 634.423064 316.312585 11034.479817 9481.385433 8350.579568 7184.861902 6318.579070 5739.691229 5242.962911 4868.036748 4658.838124 3800.328373 3030.340714 2211.351060 1101.752353 548.574423 11047.069910 9638.509572 8582.613230 7537.688590 6841.365824 6097.204647 5673.571664 5144.535926 4468.735356 4268.050081 3681.514152 2237.845370 1044.132200 438.284526 11135.088547 10023.436879 8865.182425 7802.918731 7134.285497 6561.642125 6114.275252 6008.826084 5498.174141 4623.480813 3884.529079 2495.683223 1194.865415 519.433154 12427.286702 10949.307819 9660.383730 8698.511894 7825.503098 7199.934856 6592.551190 5937.844390 5503.439825 5183.107998 4469.958601 2791.516931 1362.699025 487.156309 12437.649775 10969.004759 10658.275656 9930.787454 8987.839335 8131.295454 7511.458437 7045.435666 6271.582088 5253.733828 4326.642639 2717.347747 1326.634484 511.036127 15215.887240 14378.375582 12565.344454 11122.051690 10321.333638 9718.055217 8645.997260 7519.683742 6557.715577 5594.809623 4544.462153 2840.729432 1432.237574 617.851846 13274.902747 10143.741018 11644.382410 12269.081999 11512.713653 10236.444608 9521.683658 8681.084343 7456.767214 5916.422729 4580.760242 2893.914611 1373.030316 567.585142 18136.421738 17887.734724 14765.547110 11149.507000 12249.411793 13002.530579 11822.033709 9821.494032 8084.715933 6283.149952 4806.047894 3229.018525 1452.192094 547.183507 3976.352166 13849.703581 13543.883553 13558.497552 11696.561764 8429.100175 7051.498628 8402.284093 8212.026934 6880.937639 5400.509080 3739.323555 1229.899773 632.382036 19407.048393 15249.059911 9565.364105 9373.076804 11456.949564 11625.774035 11893.240210 10592.355882 7276.426725 5591.236041 4841.235164 2594.833444 1163.596510 1099.112023 -1699.639937 16282.584297 13923.432306 9194.874694 -6016.077835 7590.719729 7766.926238 9802.802506 9776.162978 8641.000941 5766.954066 3212.845331 2400.648478 1446.134677
</DataArray>
<DataArray type="Float64" Name="Velocity" NumberOfComponents="3" format="ascii">