<VTKFile type="PolyData">
<PolyData>
<Piece NumberOfPoints="1945" NumberOfVerts="1945" NumberOfLines="0" NumberOfStrips="0" NumberOfPolys="0">
<PointData>
<DataArray type="Float64" Name="Pressure" format="ascii">
 30064.570390 31152.356335 30341.939812 27920.140275 27317.498646 25008.131048 25873.616946 27530.015947 24619.027033 26680.397220 25359.391169 27269.203836 26162.176592 27893.290712 26623.437936 28152.854370 26260.728561 27624.421296 25722.415454 27319.897580 23959.362373 26423.554104 24425.837384 26728.353606 27105.224001 26314.627554 28415.896288 24536.089121 27731.812934 24617.313590 27850.179472 26442.491529 26636.346314 25911.081439 23982.904668 24378.693410 24741.922349 25470.135181 23828.628641 23377.229594 24394.753252 24518.086221 21562.821729 22921.798922 22646.366530 23342.985934 21481.640061 22798.112151 23352.851747 24753.626515 24536.199105 24535.005644 26317.426245 25047.336311 27802.495818 25948.421756 25749.486765 24000.148738 25002.798501 23382.577718 23327.351427 23232.002011 22030.377503 22803.807278 22495.682551 23336.231539 21858.549383 22608.675925 21732.713118 21855.199078 20770.571465 20826.129572 22439.052669 22571.905337 21526.907225 22001.912604 21544.529185 21581.704587 20695.499359 20487.296126 19717.874790 19676.365686 19883.060172 19599.859362 18963.864442 18989.137247 20557.006459 20023.996225 20601.612800 19627.706711 20965.496535 20077.342418 20471.114575 19217.163273 19031.089522 18223.718511 18855.069297 17835.087724 19692.848517 17523.510493 19903.612307 17676.436821 18466.928373 16658.734016 18900.415580 17573.579840 15881.312931 15846.909554 16944.492625 16914.489532 16463.088722 17053.898057 16269.180085 16893.452527 15755.046431 16134.405979 16134.496116 15675.088923 16527.643887 16524.794588 17490.697115 17003.425279 16517.445220 15891.512609 16029.863941 15793.308425 15013.036763 15607.918258 15245.357896 15886.263716 15218.982612 15802.353974 16437.276881 16761.463394 15467.214750 15621.570999 17040.567635 16774.699089 16148.104900 16418.112797 16855.038797 16708.648226 17495.408539 16040.145059 18193.973082 16206.359810 16457.946234 16266.355554 15639.692766 15825.331140 16052.350020 15028.850426 17553.296143 16449.515953 16387.953223 15763.680555 16567.960160 16096.749174 16662.147434 16731.485802 17310.576566 16500.908295 17446.230393 16517.713612 16432.167816 15893.575978 16156.132710 16178.879537 15283.996785 15452.664690 16018.415570 15876.499454 15980.910731 15765.049492 16489.475630 16244.307153 15740.519688 15447.659479 16507.925137 16093.463474 16445.920109 15439.053086 17248.100484 15528.737104 17500.550923 14752.580803 17457.467365 15038.169989 16779.935412 14238.867963 15173.134992 13857.428541 14841.143728 14094.654527 14750.831125 13824.977490 14147.993503 12651.167912 15193.737006 13469.025058 14793.025426 12482.505265 15244.279140 13258.011428 13244.118691 13161.122672 11924.854143 12724.203062 12166.459324 12424.583896 30773.186422 33022.812045 32499.352879 29543.134387 25615.317715 22663.090206 20740.828394 20418.350992 20085.285543 18140.276191 16387.324666 14723.639822 13347.760709 11629.449635 9039.630194 6995.268388 5215.063725 3003.957639 -4.703266 -1937.000414 -1938.558763 -1305.508618 -869.358548 -651.971911 -620.361655 -738.063658 -962.695348 -1251.086344 -1564.018677 -1869.441619 -2143.864671 -2372.249208 -2546.934922 -2666.104140 -2732.153925 -2750.205150 -2726.865663 -2669.286369 -2584.499453 -2479.000045 -2358.520497 -2227.945217 -2091.319433 -1951.914131 -1812.319098 -1674.545242 -1540.126339 -1410.226072 -1285.823559 -1168.417833 -1064.337010 26146.575561 30096.957203 30746.146461 28700.557508 25574.409277 23081.188085 20863.921998 21222.472341 20628.756997 17688.688122 16151.873291 14599.014299 13361.035047 11325.653181 8584.712262 6829.315814 5439.580360 3112.949547 -1731.912135 -3446.745676 -1887.156283 -1307.797697 -904.081798 -687.945347 -650.971948 -761.034092 -977.474735 -1258.156566 -1564.545517 -1864.948795 -2135.950147 -2362.380362 -2536.329750 -2655.684718 -2722.551192 -2741.794937 -2719.819745 -2663.626805 -2580.148593 -2475.822059 -2356.352959 -2226.621105 -2090.680962 -1951.820240 -1812.648321 -1675.194748 -1541.003558 -1411.204462 -1286.482480 -1166.497406 -1045.829995 13342.447852 11711.226003 10203.614928 8375.833758 7444.659982 6071.572183 3781.402929 3358.061223 2753.936037 1979.316594 1577.279713 1335.046160 1187.361902 1086.691683 1000.803912 910.327021 805.858970 685.045167 550.001345 405.255171 256.239602 108.289172 -33.949938 -166.797935 -287.604652 -394.680096 -487.155432 -564.818624 -627.952796 -677.192896 -713.407475 -737.606732 -750.874679 -754.321635 -749.052699 -736.147978 -716.650856 -691.561267 -661.831696 -628.364353 -592.008562 -553.557948 -513.747344 -473.249602 -432.672603 -392.556719 -353.372497 -315.515467 -279.277758 -244.674429 -210.347440 12417.830965 11450.952852 10307.532645 8717.020012 7334.728319 6004.269355 4437.517642 3374.218660 2600.121558 2011.547661 1608.129771 1355.863299 1198.816035 1091.252901 1000.958242 908.125206 802.810905 682.151310 547.840317 404.087316 256.105515 109.093138 -32.375218 -164.645167 -285.061966 -391.913954 -484.302938 -561.986104 -625.218123 -674.609706 -711.010008 -735.414520 -748.896649 -752.559439 -747.503242 -734.805211 -715.506943 -690.607275 -661.057945 -627.760535 -591.563761 -553.260613 -513.585288 -473.210056 -432.742373 -392.722663 -353.623624 -315.854626 -279.791877 -245.954375 -216.148051 -988.864258 -953.926057 -959.232436 -925.601016 -884.166773 -864.979756 -790.575995 -788.087004 -710.424695 -710.537954 -637.527737 -638.055247 -570.736759 -571.308184 -509.627437 -510.180634 -453.883615 -454.407316 -403.196771 -403.688606 -357.254557 -357.714036 -315.742924 -316.170205 -278.349808 -278.745438 -244.768493 -245.133308 -214.700390 -215.035457 -187.857282 -188.163843 -163.963071 -164.242504 -142.755098 -143.008875 -123.985081 -124.214737 -107.419719 -107.626821 -92.841015 -93.027137 -80.046343 -80.213048 -68.848312 -68.997132 -59.074453 -59.206873 -50.566762 -50.684211 -43.181132 -43.284972 -36.786692 -36.878212 -31.265089 -31.345503 -26.509726 -26.580166 -22.424967 -22.486483 -18.925343 -18.978906 -15.934756 -15.981257 -13.385702 -13.425954 -11.218511 -11.253254 -9.380629 -9.410531 -7.825922 -7.851586 -6.514037 -6.536001 -5.409787 -5.428532 -4.482594 -4.498549 -3.705972 -3.719515 -3.057048 -3.068512 -2.516133 -2.525812 -2.066332 -2.074482 -1.693187 -1.700031 -1.384367 -1.390101 -1.129384 -1.134174 -0.919342 -0.923334 -0.746719 -0.750037 -0.605169 -0.607919 -0.489356 -0.491630 -0.394801 -0.396676 -0.317755 -0.319296 -0.255086 -0.256348 -0.204180 -0.205210 -0.162858 -0.163694 -0.129302 -0.129977 -0.101996 -0.102535 -0.079663 -0.080088 -0.061226 -0.061554 -0.045763 -0.046007 -0.032473 -0.032644 -0.020645 -0.020749 -0.009632 -0.009675 0.001167 0.001182 0.012323 0.012395 0.024386 0.024511 0.037880 0.038056 0.053293 0.053514 0.071045 0.071302 0.091443 0.091721 0.114606 0.114880 0.140354 0.140586 0.168065 0.168199 0.196475 0.196430 0.223414 0.223082 0.245485 0.244718 0.257643 0.256245 0.252696 0.250417 0.220700 0.217219 0.148241 0.143162 0.017624 0.010459 -0.194063 -0.203899 -0.515965 -0.529166 -0.984562 -1.001936 -1.644813 -1.667285 -2.551320 -2.579929 -3.769434 -3.805327 -5.376270 -5.420684 -7.461531 -7.515772 -10.128067 -10.193477 -13.492075 -13.569989 -17.682834 -17.774529 -22.841888 -22.948520 -29.121568 -29.244099 -36.682787 -36.821914 -45.692049 -45.848103 -56.317640 -56.490458 -68.725104 -68.913627 -83.072616 -83.272883 -99.509715 -99.703106 -118.200738 -118.282005 -139.492093 -138.847598 -165.121283 -159.798249 -186.140850 -176.720845 -194.824791 -185.082656 29622.945628 28280.451106 24099.309473 26245.725924 27790.337959 23368.048856 27293.475768 27195.852723 25643.762040 23904.659214 26172.761221 32099.578611 28714.618197 24420.707302 32533.894409 19593.081914 15567.745325 20735.849817 23685.139942 22575.989634 24941.344446 19777.112817 27829.364182 26976.932597 31677.272121 28720.714559 25605.668109 30210.647819 22657.343974 26050.130798 20697.248571 7663.806537 25704.848593 29164.508930 28596.995651 30643.071010 16473.667494 24676.873378 26166.252962 25847.803770 15523.649059 25223.238142 17320.578471 26997.336136 22494.290096 14862.790178 28610.028557 28045.354276 28765.996102 24018.794197 26855.165269 23584.831431 13872.062176 21163.437058 23615.792250 26803.664782 26324.902362 29448.411219 27610.116545 26811.462379 24087.639074 30311.303226 27703.731713 25948.426848 23349.068686 29758.057392 26242.118271 25370.446891 27400.725118 28362.053330 23497.534380 24887.517236 26631.591557 25926.935799 23028.340776 22947.533138 16849.294826 23190.083700 22678.022475 25098.393176 25418.159917 24117.395404 24271.612513 20621.848655 25141.663155 24733.348781 16405.618496 19294.735829 25983.279522 25276.999560 21472.547549 23344.706102 26374.750287 23196.510220 23287.309722 25233.424721 24247.455176 10909.015913 20814.896072 23874.879918 24012.529275 24977.224214 24657.928055 16674.722284 24813.656075 17965.072529 23410.063589 25524.106460 10269.969645 19534.539917 24177.697603 23411.372633 23972.136671 12342.320053 26362.942655 19758.592472 23730.409822 13491.011653 17292.395040 10204.340511 9222.454764 25466.685950 23971.754649 15486.551350 25208.977075 12788.556555 20878.121259 15441.190622 18148.191874 20801.740493 21330.534250 18360.342835 24145.055304 26033.311485 22496.670652 22196.244014 17746.558858 22555.369320 19166.560725 12883.496252 22845.439827 23005.180213 16579.802240 25743.329101 22803.367240 25712.857384 24971.568697 22630.365580 22164.139779 20007.960945 16129.951321 21833.934885 12285.067408 17313.075103 24566.642253 23431.344275 24908.120752 23770.195810 21947.868412 27842.901693 18488.261708 18155.367931 10754.763445 12219.032448 13599.437489 23440.125514 24593.587282 26440.815799 19614.518110 15479.738069 18017.576749 17934.036978 16075.221874 7888.193961 8958.847897 4388.769721 21936.140146 20062.259880 23374.240816 24031.216289 23227.003082 21316.373370 17353.574811 21251.379197 13919.402094 6814.867522 4418.245500 21743.051457 21525.080656 23095.067278 19846.542676 13945.265866 8857.965794 7833.170770 11484.837341 7828.889253 5973.438983 5518.575190 21272.093533 22196.637702 19644.405338 23388.042689 21168.630450 9727.456676 15617.016000 9395.281806 10584.647147 6786.189294 3844.347158 23264.338435 22205.226639 22066.834766 23555.136342 11792.765371 12195.064654 10594.883972 10211.380399 4159.232492 5525.821791 6670.141751 23202.835527 22484.833741 21881.833864 20769.741142 15885.258701 9900.970171 7812.516622 6631.993276 4421.031012 6102.658738 4169.058971 22687.797537 21255.915444 18865.479856 17748.501589 16569.559086 10827.636231 7404.665295 6703.133123 6631.546515 6091.200250 4197.882111 23116.002089 23435.280774 23331.312269 16601.427671 16988.401986 17350.429517 7767.638850 7828.625218 8176.978842 8541.203558 4569.972302 22956.356518 23235.775533 19602.156615 18586.799099 12318.306784 15506.373752 18600.908201 15061.071012 10423.390717 6672.279156 1901.200375 22141.723720 21522.092099 20006.650701 18268.387313 13717.511937 16167.594967 12852.440326 5070.119478 15135.632393 6839.261212 5363.676339 21951.295107 19455.717877 20731.652107 20604.001058 19523.533220 12747.561859 12596.509032 11268.954588 11095.043376 7181.819822 3896.241387 22585.815948 20310.266665 19229.979084 17487.824318 21127.473243 8114.320001 14876.805529 7245.837430 8212.829391 3677.338200 2928.616217 20039.477558 19722.771756 15728.287455 17939.655845 13300.518841 20887.326809 13211.747370 12776.772693 4683.148873 6791.892646 7213.306462 20941.288702 22693.574489 20958.169835 19636.274551 17203.965877 11012.385628 9633.833398 11762.339614 7578.572287 10437.975957 11384.125518 22422.918345 20035.452444 16048.795932 10516.002500 17665.432873 9709.229986 10072.966803 6270.003487 9969.742141 6515.479313 3959.274389 22775.840643 18820.960799 22745.644234 19226.235694 16985.362613 10457.023388 15014.014385 8427.613385 8915.208948 10379.715019 7333.340972 21240.996954 22124.404238 16756.279768 18246.694766 16922.512974 14271.670510 11802.969773 10996.756106 9937.011473 7464.300274 3845.029095 21035.128276 12867.271893 20194.325921 15273.038275 15996.628484 14481.271042 8606.604514 9355.799020 6939.459954 6379.616674 5574.158365 22179.404653 19785.851871 18976.800445 14420.182273 16616.350094 11394.424852 6508.977439 8725.411209 6529.425467 5703.473626 3680.318747 21058.111369 18734.119986 17587.925714 14865.135084 17203.549288 9477.216731 10271.424305 6751.028542 6099.893443 5207.340878 3299.228665 19777.600976 20094.345585 18923.816433 15754.732282 14102.144532 13571.998614 9673.884680 13793.864966 7655.311677 4748.009185 5236.971598 19649.866945 17386.662320 14981.529150 15318.465509 19313.435632 12909.436133 12582.224868 10797.457011 9343.541180 5571.281264 3115.898256 20227.625902 20670.467359 17986.735848 16399.525162 12219.208111 11937.435114 10793.172392 10627.465356 13509.033075 3007.962141 4606.736921 19453.114210 19634.170407 17510.141315 12132.747041 14549.810327 8699.084401 6925.648608 6964.936887 9041.306279 5402.919507 2818.947246 19321.257991 14946.465442 16913.035075 13763.677880 8098.678831 9621.585284 6829.492990 8032.141008 5657.220796 7487.413212 962.990824 19375.858693 19469.709543 19679.487806 15951.339209 15951.670960 8115.508319 5017.487675 6294.498078 9901.840573 5064.044327 4562.546033 17640.157689 17361.286174 13723.985881 15195.401149 12378.560773 13423.727121 13924.844930 6657.663660 5526.813020 4025.665435 4353.081586 18536.614959 18726.199722 15868.699088 11956.809877 15360.179074 8841.883457 11974.789384 8078.320341 7528.686112 6651.169072 5629.588227 17287.722781 17178.291302 16724.342814 15333.278050 11534.405546 12307.103117 6660.060961 7309.388337 4900.728778 5239.244940 5235.401196 19128.786965 19199.276636 15585.519444 7567.066752 10856.255382 10326.595133 5852.078080 12576.133374 5797.469503 8268.542575 2828.836839 17401.725850 17707.618549 16475.018085 6212.978309 7560.885929 6021.937492 6140.178584 8310.630801 4357.932201 6762.820606 3414.047046 16967.621172 12640.620321 10818.025879 14817.671485 8236.977307 12393.603898 9737.398779 5117.952072 5905.605819 6518.480430 4134.159174 18147.386256 15766.459215 13309.051637 12958.274593 10392.767557 11241.330647 5423.913875 14082.517711 7427.217785 3031.412989 2740.264685 16000.531679 15047.999541 14280.953810 12895.681088 8302.818242 12215.628600 13912.976270 4036.168373 7925.391773 3175.991277 4305.435655 14849.650287 14726.409506 15747.664619 13108.277999 11830.951995 10746.591670 11894.077144 9454.750550 11995.751919 4272.409051 2904.351938 15561.993133 14391.113741 16581.264214 13659.920699 10564.260415 13667.353279 7738.357956 9981.194452 8733.087992 4958.974557 4364.163687 17245.169320 14951.506207 14295.137548 12682.701585 15596.732440 11678.338912 11822.152771 10003.814321 6406.850702 4580.803349 2446.025255 16335.003256 15930.677608 14603.133635 14414.711735 11871.170446 10170.506716 9383.609676 7345.503420 8157.809808 4069.610310 4426.948984 15363.166260 15891.396721 15058.560256 15892.965354 15219.734819 12075.081639 6946.976991 9606.037676 5170.314851 5260.796787 2850.165996 16712.948983 15160.321679 15825.100245 14180.147848 9317.104404 7396.661706 7100.495530 6259.346495 4012.889821 2461.189609 5077.079079 15836.444999 17179.846041 16491.882012 15259.000684 8923.906569 9240.442787 6089.944312 4922.100384 4948.221194 3204.518827 4147.258943 16961.960782 16371.128942 14782.393860 11092.078651 6337.920911 8952.341039 8195.069287 5040.070818 5548.690496 3649.218465 3463.278354 17509.290792 16465.905394 12991.243033 5775.002781 12486.169928 8562.193953 8553.687846 5099.847272 6676.406566 3343.792023 3304.279873 15774.309546 13556.411742 15048.315600 13297.154676 11820.507302 10377.249180 9129.811841 11827.820185 4319.363726 2887.977867 4091.195097 17534.860492 15011.620540 14884.058009 13203.546256 10044.786575 10849.489168 10176.234537 10046.900983 5693.867004 4699.228970 4373.760129 14732.407356 12546.450665 13761.532843 12654.580784 11250.562847 10959.719551 6917.193355 3868.403961 5270.158488 5455.133903 2585.320408 16744.887027 14082.693573 14465.600123 11016.444918 12482.147321 9075.610097 4525.455567 4881.340567 7309.196707 5279.477949 2242.474358 16024.557727 15254.332089 14519.201711 13103.901450 11996.320086 13002.428945 12919.838781 5319.414816 5485.127310 4350.428489 5421.738123 15721.926263 17080.126632 13251.589229 12482.373014 13387.131772 9516.697272 8823.879425 8766.928797 5199.250339 4984.170249 2805.818148 14265.560902 13521.404871 16248.258044 14058.755422 11033.309412 11899.946337 11032.795969 6030.921078 6614.864216 5382.746812 3908.834369 14833.092665 15597.062662 14658.379874 12631.822801 7317.209160 11152.242012 11497.881877 7191.023805 6251.988400 3793.602270 3891.098677 15891.915540 15894.787454 13364.754780 14433.971728 12348.892252 13846.663954 8299.379789 7902.167271 3630.056930 5174.289588 1944.389506 16538.125756 13192.753808 11605.761784 13640.713460 12754.793108 8515.966511 7827.369024 8112.796537 6789.044894 6368.170797 3108.191115 15901.540465 16217.059373 11074.142662 10742.189928 9930.504684 9730.120446 11251.554213 7933.414132 9091.819697 5588.471524 3566.088926 16333.132114 15603.755944 15938.023402 14398.470056 7852.468470 9097.053706 10016.748296 5434.693835 6108.615544 7983.730104 3983.272724 15833.123207 13805.045010 14375.757338 12993.688549 10346.974369 11976.842835 8728.733412 11522.408315 7154.137644 6770.675127 3293.645715 16455.374634 14308.352350 16121.309267 14813.862816 13680.203910 9838.399836 10149.839611 7969.653945 8970.529737 7491.297782 6334.500460 15044.592636 13665.083501 14708.156460 12371.537896 8038.935230 12427.277841 11151.045511 7213.852484 10020.292736 3679.999275 1901.645192 15808.405375 16119.940036 11429.253680 15867.607187 14150.525295 14001.670866 8466.571083 7579.564050 4914.726397 3757.467191 2199.006916 15998.565449 13945.819472 14028.084423 14459.536139 12949.941144 10757.789913 9294.781774 7450.984486 6068.164736 5814.709039 2702.606545 13214.665881 15684.326832 13855.275422 14087.555770 11741.726936 10511.895901 13090.965318 4605.377997 8208.772741 8379.090545 3128.434671 15727.480663 14330.954119 15027.095506 15261.691301 12727.754918 9644.839646 9595.355466 8351.844555 7267.767663 6506.520893 2658.525811 14036.740477 15044.664241 14434.675606 13612.584645 12800.729953 9720.506275 8839.378046 7367.436067 5408.568336 4567.904896 4977.412388 15994.574408 12709.976675 15099.593630 11712.002357 13650.191836 12632.252051 13979.618325 9594.169154 7282.055939 4755.299794 5504.771151 16304.471762 15404.218132 13564.165486 13526.875906 12261.350406 9612.179629 9962.085957 7594.688802 8240.884462 3718.158189 7077.096785 16053.472485 15280.322431 13735.129050 12952.266919 10647.282244 11940.439953 7948.939785 8865.161373 9249.293277 3594.753114 3695.238924 12843.310151 16566.535128 14636.256531 13189.564760 13185.785698 12613.086801 10221.556980 7146.382809 8505.054047 8029.159400 5474.896644 13608.825740 13119.493044 13826.390124 13933.162755 13145.862061 11708.169865 8936.969998 6712.223031 11175.451255 7353.833585 3924.090281 13511.664477 12723.384364 14122.290028 13221.134442 13000.101310 11400.188262 8230.078667 11185.554711 6828.108856 6583.167052 3398.500658 15004.506036 12282.976538 13238.437956 16046.401678 13164.925182 8782.581766 10691.311823 8873.565500 7633.387045 7198.409820 4169.602818 15853.804995 15208.530638 10823.094390 14044.214856 13038.665428 11524.726683 11097.503884 8913.559701 5432.974657 5332.343426 3209.174747 15409.112877 13841.051165 12423.149607 12359.097002 12633.968844 9685.900119 10849.141216 8517.341504 6396.420734 4970.954442 5130.861583 15900.113075 14658.016464 13860.659578 12115.532817 10503.339920 10200.088497 5788.925275 7598.431544 6683.550423 3642.182558 4489.588948 15232.082948 10969.203246 11846.394936 12636.177828 12137.610481 9120.780333 8598.360397 10983.939703 7044.295330 5320.973735 1139.148756 14997.348826 15541.905128 10992.091897 11447.314309 7938.996739 9182.152892 10768.695416 7453.485479 4773.071142 4849.185380 3296.130655 14349.169798 15404.053806 11734.480155 10058.385797 7042.142814 8493.127300 8387.158994 5439.567670 6834.693483 6727.255640 2772.470787 10660.312622 14483.695569 9012.853464 13413.687719 8058.286718 11264.642299 5897.798265 9061.797027 3893.444933 5619.500228 3910.934083 15031.067229 15052.973213 11150.064412 11435.315569 11937.270076 8458.080189 8683.650799 7773.979554 6655.949254 3621.025519 4783.493663 13847.872261 11000.350517 11490.907611 11903.333568 11290.067672 10634.614072 7267.069680 10322.861177 5162.143096 4067.165976 6156.530943 13933.660856 10021.332399 10654.603792 9119.549621 10480.893476 10341.131458 8341.214408 5789.454305 2714.260468 5742.274958 3649.213830 11876.343839 10990.835293 12284.968120 9950.340436 9151.592790 7752.418670 7613.374982 5360.847914 5248.098564 6711.417531 4202.480455 12560.558415 11164.621154 10346.480100 9489.754118 9486.981443 8079.309149 7187.102571 7596.101812 4644.521800 4495.470687 3727.660055 12617.192241 12427.885063 12242.126465 10375.024599 11381.947501 5401.451059 5603.819763 7171.561152 5785.702264 739.568316 7376.103056 10548.068030 10551.035641 10149.172276 11773.717675 10268.984300 8579.506948 11299.532985 2891.358505 6622.546901 5374.478020 3123.047541 10618.165082 12948.951767 12759.136655 11938.427622 8715.314794 10555.683168 10221.493804 5483.744634 6364.050060 3459.547268 2988.704573 12597.029275 11541.900831 11118.851490 10078.802785 10831.248296 8852.028641 9952.847908 10787.070405 5145.625493 4115.715834 4976.288721 24752.447630 25997.798270 26167.559127 26735.636084 17816.583207 25866.722672 22766.177401 28598.737283 26570.403001 20748.552501 17858.683329 12672.840182 8893.948652 11572.195460 26252.621432 15544.396719 27851.708830 25202.757451 12079.377027 29911.891149 18129.291755 12094.743296 23893.558991 11829.646646 14196.485960 9794.231591 6826.129168 15283.196071 13978.010564 21818.401750 18258.629519 10938.680149 9831.589722 13200.941963 16428.527441 16619.630353 21961.490900 12277.574961 7093.327210 7479.215264 6367.518727 6073.611783 19985.054575 17270.753913 16865.453221 18244.143938 20923.909610 19002.578808 17386.491111 20669.706273 7938.673352 22667.622466 15972.334509 12950.135131 8742.476834 9078.084958 19831.798983 26416.915004 18313.773774 15509.157425 24273.859199 19495.850533 18709.505544 15182.211169 18547.336118 10220.693491 13112.131451 14372.448566 5724.091473 4968.364044 17992.239881 24877.209385 15532.662802 26635.420821 21746.540521 23929.502156 24594.987910 15016.943461 12239.507987 13844.003653 12128.305629 10135.352139 19153.541879 5123.196854 25606.548909 9694.454364 17919.214974 19689.413999 8971.119821 23155.380906 21713.168373 23999.277381 14048.684566 13605.774590 11878.300566 8681.931337 7702.341261 3344.096501 14266.506966 13832.003220 13199.764988 20885.460341 16583.292416 18570.632873 12109.199139 11494.131633 9022.373169 10620.977900 14498.255943 8865.383899 4948.335234 6530.598587 21219.884543 22621.460478 12653.293768 9274.218037 15214.632441 12478.915339 13169.924250 9438.455899 8433.180152 14931.205116 14633.481481 9917.996045 4838.595935 3615.337403 11528.655461 13113.287409 14879.147347 11903.510484 15452.650270 12857.092039 15819.222233 14161.420658 15225.883266 10152.576950 10008.457758 7581.354683 14430.284466 5336.709101 10915.693225 12719.712499 21910.238659 19581.366269 8567.197449 11426.686309 9615.785080 19402.823943 10669.241953 15493.031170 20743.269220 12294.995043 9689.676461 9587.692836 12945.935222 8197.058274 12554.325386 23592.953878 11911.614568 16764.197918 9840.670119 15142.605364 9276.350611 11436.758677 13823.813847 22284.048357 7579.769738 6968.884456 9345.358919 6963.438804 5224.927624 14704.176496 6606.461934 6960.425421 13374.311063 19998.823715 18845.620822 11624.147593 8314.356414 8674.182355 9416.258182 6115.389652 8554.403797 10693.322291 6661.146929 6927.697216 10545.066876 3730.003564 9457.843171 15745.533325 9533.103105 15304.153612 8861.283453 7825.546914 7574.305562 8887.616674 2751.468953 7988.925511 2710.246358 1906.538199 13453.660469 6987.780110 7662.610200 5827.223466 5374.137608 5707.282222 7732.854919 8841.790466 7932.975909 6546.620948
</DataArray>
<DataArray type="Float64" Name="Velocity" NumberOfComponents="3" format="ascii">