<VTKFile type="PolyData">
<PolyData>
<Piece NumberOfPoints="1945" NumberOfVerts="1945" NumberOfLines="0" NumberOfStrips="0" NumberOfPolys="0">
<PointData>
<DataArray type="Float64" Name="Pressure" format="ascii">
 14804.360205 14853.125380 13992.374169 16005.186225 15351.880046 17049.615289 16420.408964 16175.234487 17255.467351 17439.358208 17901.902003 16993.870346 17312.472422 17452.666513 18061.898707 17824.695067 17028.139423 16635.258090 18179.532864 18646.383134 18389.972191 18000.805573 17689.125498 18120.950780 18600.809432 18306.825788 17574.817915 17768.123406 16593.784478 17635.146279 20046.603233 20429.990175 15492.582598 16625.793804 18559.913711 20475.763312 16955.922030 16170.314926 21286.522496 19627.067385 19146.706497 17375.283302 23754.904211 21067.814569 20460.726203 20004.805965 17585.214269 17915.543253 18727.322973 20508.734346 17067.514629 17793.716186 19703.708289 19529.827437 16002.641852 17613.158463 17018.489218 19827.182637 18043.138516 19230.811475 16140.253224 17897.687421 17894.780738 17651.020619 20573.776333 17064.510602 19895.215198 18167.155154 18391.115790 17435.821455 23283.236861 18954.762414 21831.141318 16768.000897 22459.420001 18479.067624 17377.820649 17529.044343 20665.044986 21633.002340 15434.434697 17301.520705 18555.642298 21042.455155 16862.533073 18669.149041 20076.668419 22279.333326 18907.805765 19379.055928 17247.570479 18675.387515 20134.118242 20708.536647 18793.175652 19675.006571 21208.006610 21374.657271 22327.357510 19073.447279 24885.297589 23067.978994 24169.067511 22230.736232 21718.716276 20447.491281 23464.340936 22541.889835 20402.729582 21620.758811 19562.693523 22039.620969 19238.146424 22097.480203 18046.489719 20288.560943 21707.690231 22405.943191 18655.760635 20401.075462 20140.623719 21360.280349 20087.059768 23021.532470 19090.221068 22696.355875 22021.004558 23334.246166 21235.375997 20817.649879 21125.415719 22327.179295 22634.354626 23096.063682 20004.100234 20963.158561 20893.231025 21812.032327 20892.790352 22379.528661 21375.892016 21199.787969 24927.871371 22036.416337 20503.069017 19838.869863 21717.441296 21062.073639 19644.827308 19528.113547 18019.957457 19694.763926 18827.976132 19516.781031 18738.092652 18131.977710 21616.514390 19557.571402 19447.465666 15692.603820 22162.314175 18981.309196 19966.988543 16860.150745 20989.764244 18857.053843 19010.521371 17510.689301 18674.485278 18132.182593 18026.889523 18204.359181 17783.115625 17382.397299 19421.414822 17971.427750 19026.437858 17923.823994 19218.873681 17818.205666 20329.879828 19382.371842 21406.364710 19443.792617 19817.518657 17163.106505 17731.761093 18164.719071 18615.279810 18648.557053 19823.236807 18903.541125 19083.817989 19049.919209 18660.555883 18954.109031 17991.868016 18669.332448 19799.913794 18665.600855 20526.987128 17667.606272 20057.392760 19089.307649 20145.232746 21010.849439 19612.784949 18061.327515 17526.899579 15436.045843 15364.308326 16122.948092 14721.141514 11850.831100 9402.570561 7362.030162 6139.332558 5455.907052 4038.399562 2229.157723 3004.948521 1317.914791 -3660.133046 -4879.970335 -4801.301594 -4655.820986 -4507.843686 -4314.314915 -4083.478192 -3830.655336 -3570.845533 -3316.748034 -3078.470087 -2863.588446 -2677.230578 -2522.164087 -2398.953021 -2306.216443 -2240.984546 -2199.119353 -2175.756010 -2165.723090 -2163.910107 -2165.562833 -2166.498617 -2163.243156 -2153.096509 -2134.139859 -2105.196019 -2065.756711 -2015.888604 -1956.128493 -1887.376144 -1810.791405 -1727.700349 -1639.513829 -1547.661828 -1453.554919 -1358.639669 -1264.935116 -1178.782171 18289.935384 17050.268515 14396.505018 11906.666977 9961.967170 7642.251089 6395.844507 5771.594708 3736.367481 -97.317119 3511.329076 2532.335314 -6221.736250 -5623.862867 -4645.361208 -4623.967693 -4493.796471 -4305.724785 -4078.489398 -3828.778402 -3571.587890 -3319.583203 -3082.882270 -2869.083765 -2683.339588 -2528.451221 -2405.032667 -2311.769666 -2245.771147 -2202.982650 -2178.620219 -2167.584683 -2164.825189 -2165.632566 -2165.854422 -2162.032947 -2151.472780 -2132.250037 -2103.175238 -2063.722901 -2013.939680 -1954.341335 -1885.807004 -1809.477368 -1726.661388 -1638.754424 -1547.167574 -1453.257759 -1358.190983 -1262.345666 -1161.613152 15407.189163 15879.444195 15113.717313 13217.327495 10492.838336 12354.300400 10632.413704 9104.618567 9129.656406 7831.845792 7464.689390 5675.346488 4890.346197 5182.903115 4323.122380 3515.238066 2794.253585 2182.186071 1676.532531 1263.101862 925.545933 649.124824 421.693499 233.603003 77.298412 -53.093467 -162.110837 -253.238119 -329.137269 -391.841284 -442.916015 -483.592911 -514.874354 -537.613727 -552.573191 -560.462790 -561.964703 -557.746310 -548.465309 -534.769546 -517.293645 -496.653990 -473.443141 -448.224412 -421.527050 -393.842168 -365.619074 -337.258987 -309.087713 -281.199102 -252.454326 15108.995134 15459.548528 14163.315694 12458.522244 11003.638270 11234.462908 10510.810325 9742.709891 8982.847767 8170.412000 7304.521613 6440.772426 5731.502230 5061.525604 4304.493731 3523.717008 2811.716234 2201.396867 1694.158932 1278.061995 937.810041 659.045744 429.700162 240.087484 82.588233 -48.733114 -158.468083 -250.145925 -326.466541 -389.495004 -440.823820 -481.705904 -513.160228 -536.052366 -551.152911 -559.177281 -560.810684 -556.721827 -547.568574 -533.998217 -516.644430 -496.122491 -473.023861 -447.910868 -421.311982 -393.718017 -365.579880 -337.310881 -309.312020 -282.126849 -257.467396 -1114.564582 -1084.561795 -1086.917714 -1057.530723 -1017.356608 -1000.091363 -928.507496 -926.087143 -849.718211 -849.664810 -775.987516 -776.343905 -706.673343 -707.103738 -641.723155 -642.166545 -581.128066 -581.569393 -524.839117 -525.271865 -472.762733 -473.182642 -424.768038 -425.171967 -380.695161 -381.080801 -340.362757 -340.728488 -303.574490 -303.919272 -270.124538 -270.447812 -239.802179 -240.103788 -212.395586 -212.675695 -187.694899 -187.953931 -165.494683 -165.733264 -145.595858 -145.814771 -127.807169 -128.007310 -111.946266 -112.128613 -97.840462 -98.006044 -85.327214 -85.477089 -74.254374 -74.389608 -64.480252 -64.601904 -55.873528 -55.982638 -48.313038 -48.410614 -41.687463 -41.774475 -35.894940 -35.972315 -30.842621 -30.911236 -26.446191 -26.506873 -22.629355 -22.682877 -19.323320 -19.370401 -16.466264 -16.507571 -14.002813 -14.038960 -11.883530 -11.915081 -10.064416 -10.091885 -8.506431 -8.530286 -7.175043 -7.195707 -6.039794 -6.057650 -5.073899 -5.089291 -4.253873 -4.267108 -3.559177 -3.570529 -2.971899 -2.981613 -2.476462 -2.484754 -2.059353 -2.066412 -1.708877 -1.714872 -1.414941 -1.420019 -1.168852 -1.173141 -0.963140 -0.966752 -0.791399 -0.794432 -0.648149 -0.650687 -0.528711 -0.530826 -0.429099 -0.430856 -0.345930 -0.347383 -0.276344 -0.277541 -0.217942 -0.218926 -0.168738 -0.169547 -0.127119 -0.127791 -0.091835 -0.092403 -0.061984 -0.062486 -0.037038 -0.037512 -0.016871 -0.017359 -0.001815 -0.002369 0.007255 0.006574 0.008813 0.007932 0.000546 -0.000623 -0.020820 -0.022388 -0.059734 -0.061832 -0.122061 -0.124849 -0.215377 -0.219047 -0.349296 -0.354075 -0.535843 -0.541998 -0.789864 -0.797706 -1.129468 -1.139354 -1.576500 -1.588833 -2.157022 -2.172259 -2.901811 -2.920454 -3.846828 -3.869427 -5.033661 -5.060806 -6.509912 -6.542227 -8.329486 -8.367620 -10.552780 -10.597389 -13.246707 -13.298440 -16.484549 -16.544027 -20.345583 -20.413377 -24.914467 -24.991067 -30.280333 -30.366123 -36.535586 -36.630806 -43.774362 -43.879079 -52.090657 -52.204730 -61.576112 -61.699156 -72.317456 -72.448808 -84.393639 -84.532323 -97.872700 -98.017350 -112.808483 -112.957040 -129.237771 -129.385742 -147.180931 -147.310957 -166.664903 -166.682875 -187.875112 -187.234764 -212.211852 -207.427048 -231.518867 -223.300572 -239.359507 -230.976945 16578.340694 16579.303028 12811.368350 16963.201019 14213.985639 13048.455520 13500.262891 15079.925880 12014.263560 11193.963331 12594.667868 15506.604047 15575.797808 13963.697425 13852.656097 8744.000723 5596.407340 13296.670760 11919.693080 14888.151493 15083.221054 10165.756727 16445.835782 16003.600020 11814.127613 15269.609995 15172.020271 16409.632915 10499.359050 14125.677870 14377.565990 3481.028434 15822.346131 16668.404824 17207.220986 17079.731800 10801.666409 16241.097386 16581.939875 14889.350166 10176.324611 14838.925962 10075.122036 15254.050218 11883.912352 11100.342654 14140.761197 17037.129555 16828.773276 14826.953379 17206.863458 11483.225357 8863.475711 8727.497712 15265.285140 18578.295418 16455.137766 19662.084330 17146.166473 16306.412987 14771.505936 17682.988764 16947.782912 17223.923451 14005.978268 16464.584342 18808.460687 15042.936418 20757.287241 20126.561809 18350.694144 18135.649387 15859.217749 18220.673398 18420.627645 17079.327767 11875.628435 14615.263123 16065.274739 20226.057423 17083.484099 18224.430922 16968.358390 13890.674059 14672.542949 15362.979044 9305.600167 13741.637997 18159.456806 18550.847129 12894.085377 16283.985089 16869.679820 15121.852513 15357.219430 17821.669701 20290.567808 6688.830006 13709.802651 18864.758721 17890.688038 16763.484970 16482.220853 12212.972469 17511.282601 13112.799093 16068.305308 18903.903548 8465.514364 13891.711840 20261.553367 18609.698725 16649.468237 9770.004869 19098.486196 14862.487704 16108.099126 9648.436287 13295.000495 7056.642763 5628.274341 20425.613880 18559.796437 10413.046717 19689.564538 9714.037399 14889.639717 12304.290622 12004.705963 14797.773195 15068.171335 13173.613453 18821.429299 20649.137465 16577.889129 16115.307216 12293.419510 17429.414638 15397.483816 9899.387610 17517.342561 18155.675222 14242.689321 19937.773414 19231.775390 20764.133772 16076.187504 21907.686163 15320.584411 15122.185003 11267.327924 15224.281408 10912.016877 12311.099382 15855.570572 15725.858214 17547.006467 20137.312122 15413.986874 15596.926671 13731.387679 15203.625362 7952.506910 9098.359577 9479.318972 17098.284449 17968.588718 16647.655701 13558.634483 12121.794332 12191.299699 15231.714963 12744.964028 6627.288128 5692.998202 1359.418548 13922.300150 15927.554965 19641.180784 13794.555312 17506.514591 15080.879713 11112.382143 18539.362123 11389.726988 3347.229822 2265.593833 14448.060576 14016.541256 18765.907483 13237.728880 10674.185847 6205.980677 8002.727032 6982.314815 5021.710102 6069.999266 5457.276349 14658.128462 16889.651444 17180.415432 16550.173945 15929.294630 9481.987709 13984.634206 9175.340664 10736.941901 5342.802488 4677.993981 19800.379284 20328.981435 16872.582012 17989.199344 10220.468717 9953.687976 9467.230379 8401.933716 3290.951542 1776.973246 3219.215516 22403.477061 17697.493817 21364.347709 16762.519109 14046.876094 6250.157678 7095.280398 6620.949258 4740.169891 3135.914063 3220.779840 22061.917461 18268.875214 13974.020935 11590.674466 14129.423169 7848.174048 7866.454161 7849.166947 5875.071738 6162.826694 -1079.302197 20306.587872 19818.890364 18743.629105 12996.702515 15601.131531 12558.011692 6891.054823 6515.163286 6238.032903 7985.155381 5882.695394 17436.642818 21344.951133 15146.768123 15849.985198 10408.315430 12164.985343 16057.613728 13669.957723 8460.295331 5371.999790 1068.106508 18062.489797 17662.285867 16330.449902 14667.448489 14694.119832 13672.176545 11338.721029 1742.853195 12052.186919 5424.782708 5892.294272 20643.941905 15594.449813 15188.922258 18421.304834 15819.589749 10907.307464 10466.998662 10653.631257 9045.510368 5468.868289 886.880390 19942.815379 16795.583506 15776.187519 15663.461280 17531.733915 7023.918503 11105.077938 6785.029389 6191.612613 4260.991326 5480.424646 17256.165982 18044.730489 12901.666855 14130.035145 12222.081196 18216.531742 10194.233602 10217.076120 2247.696541 4244.481201 4906.790394 18094.087605 20680.529602 17440.879757 14470.691261 16288.877210 9281.741794 7332.686666 8209.319115 7429.485064 10769.283451 1245.187479 20202.304979 19238.659158 12575.684488 8277.053980 14984.403327 7134.533731 7772.400913 7086.710208 9208.214639 4029.697087 6565.525962 18853.612352 15126.585322 22306.235894 15949.034108 15521.126481 7991.304596 11409.578956 7561.335370 9263.849578 9667.012946 1928.903738 20315.673050 20798.167034 17090.879349 15260.895510 17591.851963 12374.825517 11684.116232 11091.795710 9576.495360 9199.141001 7051.888564 18201.261123 9868.800228 20885.144375 14261.123065 13427.319321 13519.153921 5405.773187 8478.956064 3658.221003 6312.325908 3146.015031 20691.238552 16391.813215 18521.835104 11989.846190 15102.175610 9163.491611 6128.331344 6524.141077 4380.235238 3924.037983 4825.490582 19727.320951 18164.061047 16203.101520 13804.980777 16683.894155 10495.168220 10612.873685 5223.075110 2573.778134 5353.566802 3821.343658 18963.335910 20861.562663 17038.387948 13072.963739 12610.316435 12605.745067 9045.890960 15199.066762 5302.248180 5559.575453 5048.186396 21784.533363 17015.670278 13408.481685 14827.214115 21817.806120 12504.767289 9042.668361 7100.451223 10496.427023 5624.147532 4067.361480 19672.647210 21084.464992 14451.830463 16365.489056 11350.400755 10947.992405 12050.513958 9117.039342 12436.092695 1630.527492 3908.053044 22187.230856 18135.788819 16600.085656 13054.217384 14558.608570 9076.340189 10407.632223 4937.863565 6364.308781 5626.890514 7165.732862 17641.062758 15896.833679 20582.180172 15471.189957 5315.830945 10683.031715 8842.286516 7696.943422 4494.647094 6991.643022 4031.124383 21565.340908 16985.123266 17579.643407 20452.553776 20473.666727 10187.217281 5214.651962 6664.399497 8050.687854 3355.956337 7449.535750 20759.783927 18874.247732 16111.039001 15647.117092 11438.609205 11810.465885 14732.926924 7434.847859 4324.372079 1491.673236 -344.623953 18214.449783 20500.202461 19704.038843 13933.431281 17364.079706 9770.408727 13846.098009 7911.261723 10119.224591 5174.736251 4172.752013 19419.501780 19472.647918 20159.989006 19822.283553 12596.060544 12224.801866 5455.823330 6748.398086 4248.390396 4078.991505 5641.304615 21886.586052 17454.269527 18088.572978 8034.025067 10028.099037 14020.700726 6737.410906 16154.691432 7588.814194 9073.741553 -1475.994292 21020.452760 19112.380913 18927.796170 7417.285379 8526.705245 6060.254354 6016.116179 9157.686563 4610.224864 9203.749378 4647.813233 24049.796514 10473.579771 10844.802369 17843.249958 8487.341192 16657.180678 10330.510949 2068.383550 6159.738853 9811.089963 7998.968547 21671.950268 23574.515729 13193.192311 19738.859025 9157.784754 10508.750221 6998.729528 14338.490560 7013.420530 -4020.877877 2750.684563 21360.914377 20091.459138 14680.706403 12689.301221 8331.327675 12070.361040 16480.180808 4676.681827 9247.458658 6113.143666 3484.431061 17177.771561 14675.027445 19686.293050 14576.343847 10258.708824 11334.414445 13912.222034 11522.229138 12891.793888 4553.173120 -609.081729 18989.513507 15549.526585 18326.522203 14967.025798 11585.259037 17297.524645 8696.038341 11519.369250 9461.534307 6877.021128 7721.977783 21246.840941 23024.493551 16050.004007 12917.776168 18326.167007 13224.945037 13019.712342 11284.255476 7717.555694 6100.809333 279.583915 23471.067770 21395.329180 15587.663578 18775.960001 12367.458641 13637.939469 13365.430923 6357.065430 9868.743350 6944.445659 6581.433595 20455.033702 22634.748038 16137.653018 18234.135066 19417.961407 12709.452879 9564.480360 11925.801626 5865.660498 7657.246385 3521.363954 21829.851654 22292.235212 21044.167056 15494.733569 9024.937660 8258.935114 9870.708195 10034.399098 4178.428915 8218.751810 3634.470346 21792.539918 21977.404002 21910.500130 15926.188925 13367.837247 10824.046006 6674.483364 8349.024888 5650.103932 7262.215284 3377.726577 22794.845892 22692.394597 18948.180353 8269.608225 6295.646702 10364.406405 11118.592376 8502.910548 6662.851252 8419.411234 5152.287375 22532.207239 20137.460555 14264.776619 11521.961305 17406.755881 10383.561398 11785.897762 6819.454902 8902.982085 5644.641856 4187.457416 21458.421033 16687.962053 18405.784424 18770.273347 13155.613358 13016.243162 13509.290178 15103.718230 10060.541645 4265.651531 7901.541989 22326.571224 17040.508375 20669.392603 16199.624664 13295.276888 13743.020546 12784.098166 13492.230099 10757.497781 7989.763545 7858.973468 20518.355974 16104.296965 18642.260261 17097.744727 13733.551479 14057.744698 8345.493451 6137.632048 7091.309622 8362.630625 7029.827417 22176.019133 18537.401348 19301.191315 12833.215389 16572.341240 12506.960421 8801.422488 6110.031317 7555.256160 9313.199631 4336.046957 20130.949403 19907.471537 17137.966448 17127.808062 15540.721227 16128.093569 18036.086743 6755.050053 7326.203277 6482.006410 7891.969112 21290.005761 22171.405949 19892.941575 16648.607389 17524.874444 13229.297010 10544.188434 11525.832288 7540.357539 7824.573425 5025.488387 20194.841273 19157.139030 21988.667158 17800.254969 16067.506979 16539.200161 14515.668344 9514.257635 12126.955286 8353.653214 5310.057943 20657.337445 21134.177777 18130.988321 16607.833774 10584.931732 14376.347885 15281.391393 10177.994299 11459.870303 8410.767826 7338.647641 22313.466296 21043.691793 19221.790626 18479.337986 14475.933873 16444.043235 11685.753435 10963.017341 6773.489946 9109.122512 2527.975778 21452.726987 17584.366948 15721.185425 18233.175487 13578.779177 10802.098799 9059.818264 10401.783371 9229.876770 5822.096216 6490.564606 19338.289931 20688.412935 16351.040670 15580.685372 13500.677342 12520.924565 13797.459046 10040.319256 14192.050483 8122.035006 5093.991008 20652.444865 20641.442199 16381.404802 16451.035661 12564.285579 13782.869091 13321.187138 9166.196610 9960.557797 11158.031950 6268.135723 16690.707310 17075.023281 16425.116269 18542.007525 14403.869165 13697.132897 13014.135578 15990.671185 10701.218885 9710.169334 6130.734254 20013.639911 15261.584510 16586.368060 20650.101310 16354.619401 11737.043474 13007.481840 11912.480522 13740.696854 9150.100232 9809.618778 20293.574024 17887.107154 14473.880941 15314.559292 11524.741032 14606.768762 15593.711565 10229.283864 13038.356803 6490.761839 2404.407217 17946.655180 16692.568469 15349.007271 16485.452219 17970.450435 16468.555564 11688.379880 8928.493724 8143.127261 8599.571670 5651.537348 17848.899635 16079.721890 15383.450517 17352.649052 15694.268780 14059.964306 10292.934096 11195.640132 9341.176961 7614.991816 3224.557381 15947.084567 18868.169158 15823.651228 19946.407287 14698.998541 12113.123197 16253.761756 7717.013170 11201.854802 9583.878878 5184.991840 16758.754779 15553.104856 16234.883101 13720.333185 14876.718612 13484.462668 12594.553786 9771.305201 10569.419498 8014.676914 5808.286289 14493.700806 13899.943037 17482.885780 18047.652369 14684.700817 11344.206370 13779.841471 8073.702483 8639.934998 8157.306735 7479.770769 17045.999498 14834.121355 14355.380680 13039.191682 15398.366749 15301.933195 15058.299577 11264.007515 10033.669778 5828.764143 8211.883781 15542.023473 16365.938887 16216.252537 14696.263968 14329.010918 11477.674154 11505.265860 9291.521184 10603.168497 4054.623890 7704.490903 17541.924534 14540.396843 16010.412315 16010.613646 11992.331860 15074.641461 8626.951926 12222.068288 9862.075027 6306.113615 2612.293119 16458.638102 17167.202459 16180.318952 16816.956340 16258.139870 15859.858243 11583.813037 7500.255478 10028.561238 10129.996150 6289.906944 15851.538996 15289.380109 16490.941987 15766.237419 15528.750588 13202.334328 12556.717086 9035.384227 14625.824427 10795.376612 4497.860455 16378.339950 15281.940862 15649.068320 14798.942257 16659.413876 12928.054835 10661.898563 14528.731052 6223.994012 8486.034843 3666.101001 15260.458644 16814.035336 16190.249759 16844.640281 16301.995891 11790.147467 14447.738979 10255.985593 10089.714877 9051.462701 3679.106201 18068.158734 15007.676420 10909.176935 15632.568332 15215.213923 12336.202083 13001.892515 9775.305901 7381.683017 5693.985479 8531.646559 15501.238528 18415.740987 16792.813892 13571.500723 15364.766194 12150.774904 12015.800119 10192.790119 7403.290036 7123.153195 4701.552629 19204.925209 13927.718459 15008.768907 16599.848405 12938.591245 12257.422647 9974.856928 7890.364037 9042.947722 7712.017843 4878.700884 18739.515724 15425.748024 13589.490179 16344.585884 14443.215406 10840.602058 10882.377005 14441.518611 10287.823417 8358.343499 2889.988492 15004.778474 17093.717111 12426.263776 14327.177181 10146.704022 10672.260290 12739.735258 8459.917454 8248.733015 3556.937260 3758.451475 18755.445339 14750.618134 14339.111100 12473.604069 9806.247367 10428.673236 11690.656402 6880.115659 7854.992868 8192.626764 2863.015021 15811.898863 19070.589535 9395.735044 16168.329839 9411.290022 11657.223599 6689.136854 11241.183907 6213.476597 6601.968653 5145.751432 16253.285957 15819.558380 15528.768822 13064.044419 15472.307004 11224.283929 11471.707176 7739.134661 9662.030996 3964.530250 4422.179933 18756.658940 14989.752866 15611.289200 14443.394030 15549.385431 14048.994182 8783.028123 13509.143773 6306.026236 6608.732701 3184.911430 18850.314431 14061.172025 13891.888086 12607.997663 14746.948562 10584.628037 8645.040889 8610.710872 4322.517066 5585.011830 7591.519594 19062.916319 18812.068394 16348.442922 11752.844923 10915.111634 8546.355449 9712.535421 7425.392790 6002.394989 7598.702925 4902.645568 19041.239033 16075.161714 14103.552192 10947.024584 11631.134519 9622.615288 7248.171427 10432.375219 4701.691368 5877.477923 5882.665837 17450.622710 19902.170171 17522.598362 13087.499546 12919.502372 8005.056741 10245.558698 5676.306117 4695.792032 4973.326016 6212.913820 13752.939586 13445.796774 12433.296202 16971.228437 11375.122304 10946.804969 16102.930097 3131.364297 7691.813478 7145.009756 6413.272245 14282.426658 18823.280031 17469.342355 15970.764274 10318.152064 14135.272835 15480.623686 5708.858031 5524.534368 3860.385757 7260.297428 14481.192569 13459.942978 13069.572016 13752.826957 14755.618922 13960.229913 12063.466443 13931.586021 3921.649929 6510.657394 7238.363484 12975.633904 17170.337013 18129.173953 15441.296556 7668.954379 13396.046452 11384.663390 13814.948487 12709.264578 8921.950812 9389.663504 4164.523896 2869.831486 5341.791364 16326.805598 6938.247199 15763.041765 14524.938385 7220.106314 14813.157596 7683.715164 3590.053041 11715.322645 6150.628810 6628.147056 3078.671909 1742.605886 7628.685854 5258.185388 10159.580014 9486.102234 6815.050810 4352.675063 6405.520337 7452.975511 9157.780620 10110.514629 2782.900456 5228.460967 3891.139528 4117.475553 1539.989872 12451.013957 9008.836920 9039.174945 11032.847027 14142.686578 11334.072378 11548.286759 10788.898343 2866.452631 13287.302431 10336.549388 6229.311075 4696.940756 3607.104896 12773.671688 14912.682340 10573.369590 10038.853502 16614.236973 10779.089303 13021.892095 7979.233048 7781.556931 5309.928554 4999.585998 7066.618636 3112.888324 1343.826112 11311.556736 16072.226034 8716.917224 15591.607296 13511.360787 15691.752099 17387.540517 6541.558638 7784.486369 3598.311123 8313.433245 5586.845726 7854.886062 2850.007391 16268.516568 7014.200413 11571.002939 12205.099102 5264.541274 17895.794517 15081.505513 12419.068302 10193.540294 7299.273749 6931.792148 6172.218378 2917.968355 3837.335635 7191.437206 9693.434114 9437.111244 14531.133973 10083.974117 10281.893335 8089.362561 9515.072190 5774.532684 6714.683023 11435.529569 5467.621894 4353.284141 4047.326118 16937.818444 16633.794104 5680.980947 4931.759036 11948.422451 9191.394494 6565.788603 7191.423361 4325.219804 7366.000686 9683.350554 6922.844931 5132.431009 4077.946638 8739.135738 10529.822386 11411.345965 7563.357495 11934.582536 8014.322986 8880.129549 6932.587570 11506.562406 4223.033910 5057.682536 6761.296126 5178.307925 4674.663389 6309.857587 9742.109960 17702.672530 16281.780553 8005.330213 7708.944627 7679.181295 10614.443017 7563.462609 9122.168646 17211.747033 9527.807441 3894.493589 3768.526284 9946.728807 5477.934491 8695.735647 17874.191373 8180.019415 13682.856507 5858.211866 11042.455478 4473.845162 7395.325239 9336.166248 15993.962010 6824.636252 3267.727629 8484.446481 4618.628238 4618.647349 9971.956388 6048.107219 5592.149677 8672.610316 15012.598140 13945.381662 8298.239416 5015.486703 7852.971914 6597.479555 4388.111668 2454.340014 9282.197559 4891.426296 5339.031075 7428.503216 4583.384962 5924.799905 10038.422476 5280.849712 10427.286574 7657.655790 6222.115040 7369.972773 5962.672439 4695.782279 5094.845986 6378.526795 1588.928367 -114.879273 1112.381845 6720.852231 6364.277601 5213.776680 3708.022231 1522.449235 5745.535892 5451.101125 6540.119141
</DataArray>
<DataArray type="Float64" Name="Velocity" NumberOfComponents="3" format="ascii">