<VTKFile type="PolyData">
<PolyData>
<Piece NumberOfPoints="1945" NumberOfVerts="1945" NumberOfLines="0" NumberOfStrips="0" NumberOfPolys="0">
<PointData>
<DataArray type="Float64" Name="Pressure" format="ascii">
 55573.285350 53363.300544 55275.409085 49475.694757 61083.620181 56819.413728 58688.389664 55662.839570 53627.528761 52026.303215 53465.455782 50942.666239 54796.523396 54577.668860 55504.918270 54960.235038 54417.712330 53639.385581 51321.532890 52171.514285 44517.203004 41988.547606 49927.660353 49622.713923 48136.538911 48921.254332 42588.979738 40641.455127 48245.188675 48729.959083 42014.156065 38064.582747 42624.025345 39418.966015 49852.429488 48503.467758 40218.019249 35867.210845 42241.247900 40704.034146 38812.713631 37860.727010 37054.958053 37446.470107 37796.272430 40652.859603 33668.677351 36791.637671 33077.736393 36892.394103 30842.659321 33784.214799 30581.829615 33574.808949 29817.314465 33428.391915 28111.109563 31220.298034 26685.853645 29144.186625 25751.878189 28550.718818 24988.849598 28270.235888 24035.080914 26920.273856 23062.422792 25407.746155 22300.573789 25132.435149 21536.821302 24714.554066 20598.898780 23945.631335 19466.893668 22918.613238 18382.695341 21803.290261 17523.603199 20661.001459 16985.167195 19761.726925 16712.653798 19564.834544 16544.648452 19490.005498 16372.844311 19567.999271 16119.165195 19801.478221 15717.199461 20123.637443 15126.463047 20415.318985 14330.905622 20537.597445 13335.305050 20346.869542 12188.606442 19750.974023 10962.951470 18786.328088 9737.046999 17496.936801 8595.887279 16192.840164 7609.178006 14722.608763 6792.515998 13318.831787 6156.648284 12075.083515 5693.668200 11051.159210 5380.828399 10224.120562 5198.535001 9563.088675 5134.241814 9060.931733 5172.489531 8684.145834 5298.895807 8405.401436 5500.607754 8207.102063 5764.505637 8079.284637 6079.471229 8023.210129 6433.238579 8040.449200 6813.801179 8135.478427 7216.004121 8317.873333 7629.967090 8578.655363 8045.093815 8907.604241 8454.158662 9290.748698 8849.775772 9706.775668 9225.056505 10127.324243 9572.102153 10521.081308 9881.592165 10865.431856 10142.218579 11130.317767 10342.623259 11300.139631 10483.054059 11387.337369 10566.772668 11394.869252 10598.120154 11342.670079 10583.667210 11231.854479 10528.523320 11088.842907 10442.059217 10925.532144 10347.360643 10788.421972 10250.773522 10663.172418 10164.570843 10533.219410 10091.015311 10449.512070 10021.736459 10284.372217 9988.883933 10213.738250 9931.355755 9971.584821 9907.784331 9826.159600 9806.512293 9462.306840 9752.652895 9123.840509 9599.511687 8732.088221 9303.713837 7953.423708 9013.782198 7203.609310 8677.802430 6467.880093 7736.132098 6035.238950 5915.092038 4231.776237 4703.523318 3484.681089 2714.015969 2116.990283 822.006347 2000.298767 -1436.143467 -826.342751 804.581297 -965.886821 4395.139777 2593.165587 53204.382637 54045.173943 56485.988148 53895.427711 46058.197850 41279.917066 36800.311993 33714.101175 30097.671932 26702.680094 23680.957913 21131.222907 18557.437622 16000.919808 12826.858510 10569.879727 9800.833603 4801.976073 -983.184108 -3207.934002 -3598.587429 -7581.004416 -9122.194802 -7554.459438 -6157.464697 -4999.588877 -4054.780266 -3279.826494 -2640.103804 -2108.456049 -1665.439987 -1297.547718 -994.949391 -749.663751 -554.430923 -402.212322 -286.119495 -199.568749 -136.503210 -91.582212 -60.290979 -38.962763 -24.728858 -15.421432 -9.454118 -5.700147 -3.381031 -1.972470 -1.129494 -0.630315 -0.340901 49291.060143 52809.377651 52422.815287 50587.667523 43360.220764 39621.980160 34932.203847 32969.581360 28725.953839 23993.619069 19451.383585 15801.038530 11795.448234 10583.169532 8337.222446 7737.285297 8182.119931 -3264.789961 -4769.643574 -2847.008739 -2232.672764 -6917.138388 -9571.512019 -7488.944163 -6140.092948 -5032.677600 -4090.477413 -3309.929696 -2664.271915 -2128.009284 -1681.694075 -1311.420764 -1006.967366 -760.082329 -563.363598 -409.725905 -292.290068 -204.504532 -140.345031 -94.492050 -62.436758 -40.504632 -25.809498 -16.160923 -9.948703 -6.023745 -3.588283 -2.102343 -1.208543 -0.673532 -0.340172 -690.791186 -3505.816275 -4252.723434 -4105.936789 -3248.542316 -2382.903624 -2164.824155 -1462.250610 -1592.208089 -3323.933937 -1263.400147 1669.914247 1592.516271 1138.565125 679.919167 345.884667 144.685623 41.774261 -1.768192 -15.077728 -15.729362 -12.575171 -9.229699 -6.708832 -5.003205 -3.845769 -3.002981 -2.337497 -1.787578 -1.331773 -0.962971 -0.675181 -0.459323 -0.303587 -0.195261 -0.122414 -0.074924 -0.044837 -0.026269 -0.015087 -0.008503 -0.004708 -0.002563 -0.001373 -0.000724 -0.000376 -0.000193 -0.000098 -0.000049 -0.000024 -0.000010 1788.136932 801.859323 701.739464 1094.002568 1213.093739 1125.186606 701.696866 300.118740 -102.581612 -221.669663 806.428410 1514.870956 1504.604419 1119.564792 695.363150 369.625082 164.771254 55.068891 5.613426 -11.628654 -14.450450 -12.293604 -9.304597 -6.852297 -5.117953 -3.917977 -3.045130 -2.363987 -1.807607 -1.349415 -0.979205 -0.689710 -0.471658 -0.313488 -0.202803 -0.127896 -0.078747 -0.047405 -0.027939 -0.016141 -0.009150 -0.005095 -0.002789 -0.001503 -0.000797 -0.000417 -0.000215 -0.000109 -0.000055 -0.000027 -0.000013 -0.193100 -0.131677 -0.175585 -0.122035 -0.113751 -0.089713 -0.057015 -0.055233 -0.030403 -0.031061 -0.016333 -0.016973 -0.008739 -0.009136 -0.004639 -0.004864 -0.002441 -0.002565 -0.001274 -0.001340 -0.000659 -0.000694 -0.000338 -0.000357 -0.000172 -0.000182 -0.000087 -0.000092 -0.000044 -0.000046 -0.000022 -0.000023 -0.000011 -0.000011 -0.000005 -0.000006 -0.000003 -0.000003 -0.000001 -0.000001 -0.000001 -0.000001 -0.000000 -0.000000 -0.000000 -0.000000 -0.000000 -0.000000 -0.000000 -0.000000 -0.000000 -0.000000 -0.000000 -0.000000 -0.000000 -0.000000 -0.000000 -0.000000 -0.000000 -0.000000 -0.000000 -0.000000 -0.000000 -0.000000 -0.000000 -0.000000 0.000000 0.000000 0.000000 0.000000 0.000000 0.000000 0.000000 0.000000 0.000000 0.000000 0.000000 0.000000 0.000000 0.000000 0.000000 0.000000 0.000000 0.000000 0.000000 0.000000 0.000000 0.000000 0.000000 0.000000 0.000000 0.000000 0.000000 0.000000 0.000000 0.000000 0.000000 0.000000 0.000000 0.000000 0.000000 0.000000 0.000000 0.000000 0.000000 0.000000 0.000000 0.000000 0.000000 0.000000 0.000000 0.000000 0.000000 0.000000 0.000000 0.000000 0.000000 0.000000 0.000000 0.000000 0.000000 0.000000 0.000000 0.000000 0.000000 0.000000 0.000000 0.000000 0.000000 0.000000 0.000000 0.000000 0.000000 0.000000 0.000000 0.000000 0.000000 0.000000 0.000000 0.000000 0.000000 0.000000 0.000000 0.000000 0.000000 0.000000 0.000000 0.000000 0.000000 0.000000 0.000000 0.000000 0.000000 0.000000 0.000000 0.000000 0.000000 0.000000 0.000000 0.000000 0.000000 0.000000 0.000000 0.000000 0.000000 0.000000 0.000000 0.000000 0.000000 0.000000 0.000000 0.000000 0.000000 0.000000 0.000000 0.000000 0.000000 0.000000 0.000000 0.000000 0.000000 0.000000 0.000000 0.000000 0.000000 0.000000 0.000000 0.000000 0.000000 0.000000 -0.000000 -0.000000 -0.000000 -0.000000 -0.000000 -0.000000 -0.000000 -0.000000 -0.000000 -0.000000 -0.000000 -0.000000 -0.000001 -0.000001 -0.000002 -0.000002 -0.000005 -0.000003 -0.000006 -0.000004 53530.859665 48205.003267 54372.712442 51936.658700 51930.070056 45700.034334 46593.984630 43871.981769 43610.932053 38430.935875 37316.382638 54398.178529 49195.026721 49767.814612 47019.602203 47066.101641 48568.361241 44628.190509 44670.584890 41568.108741 41211.903446 39072.500751 50494.396502 47684.073804 49670.734423 53153.079117 49568.747255 49581.273534 48388.677401 43122.671835 43512.495765 41078.361905 38895.824014 52447.865188 51637.048009 46167.069801 52521.260923 44492.318289 46375.468353 44144.861998 41730.981801 38872.145817 37417.557736 35142.955201 50824.458890 46333.405367 47200.520946 46881.388583 45439.084989 42177.390091 41361.186530 40456.602845 38880.006047 37316.898636 35325.998504 43661.542186 44846.880632 43556.618813 44225.081925 45397.520270 42109.927867 39122.688915 40669.926619 39908.710676 35550.851429 35735.743062 48030.459007 51476.715616 50851.470916 47067.761138 44596.764006 44959.008524 40049.710782 39511.086520 33694.479393 33182.627157 36689.368624 40774.540421 41714.523356 43808.747237 42343.280342 41368.606500 39484.520545 39454.007474 38000.105953 37064.582136 33313.268202 29151.430511 43860.324790 45560.377593 45297.107295 42143.880493 40603.133185 40492.408014 40084.450794 36637.947799 34284.911307 35509.307065 34356.730681 41261.906471 41902.302614 37293.826527 37929.135184 39606.993109 35779.926428 32407.264700 31880.153442 30624.262422 25717.133937 26283.569661 42169.015147 40485.490510 39977.948187 37216.180133 33367.567611 33819.848774 35096.346566 29066.866194 27959.315368 25563.545530 19669.926470 36438.677562 37627.755822 33871.690114 33433.017981 34006.983280 30386.419784 27658.657547 25732.175392 24786.750389 24508.325221 12625.200508 38051.977831 38163.689389 35329.191722 32205.945111 30913.561967 24440.758132 25213.921735 21997.232362 19256.267595 18266.982528 11733.635504 36819.481686 37162.493282 31821.616833 31105.471481 29083.537624 25154.755265 20414.219179 21603.548101 19013.481410 16917.837849 10611.451025 37520.299810 34792.330241 33122.708980 29031.987886 27820.894817 21665.292203 19682.259247 16914.085361 11897.070078 15802.139083 12266.884231 33694.905442 33456.558194 31527.060102 26964.477526 24143.828256 18575.525374 19122.135284 11998.471619 13059.123501 6041.264906 3313.794617 33928.248470 32470.571272 31092.105665 24945.558607 26379.908742 16990.787457 23075.796677 14339.608961 6955.402076 -5935.920253 9321.212530 32623.920936 32928.414167 27836.460406 26172.913852 21938.446958 18181.235709 11448.416223 13984.649584 12649.503038 6854.884369 3019.197195 32432.287606 31590.709466 27199.086190 26503.070881 19052.924801 20673.370526 13815.877185 10479.871913 7686.456229 6619.699326 798.442778 33062.447184 30217.242086 27946.805886 23268.270594 20644.146255 14427.003469 12151.030456 14291.255126 1567.072386 2002.086015 11629.718212 33247.396684 29751.230359 27614.945047 22280.045376 19224.870579 18459.458447 8386.502369 7577.724541 4175.451438 2143.447916 8468.118723 32670.779279 29679.513768 26205.119943 23616.439504 15256.459636 18401.022610 15732.214714 8431.066202 7423.128783 2787.100546 -1365.899006 32239.249196 28623.208759 25815.827564 22678.324615 16051.249057 15596.496652 13227.061480 8298.298244 3721.789371 -570.652736 6163.709575 31407.297440 27722.744252 25668.476222 21310.861911 18094.565503 13064.659530 12503.787123 9557.139808 4076.629398 6039.021868 11537.367196 29981.669739 27549.402384 24959.285015 21220.800580 18335.332587 13733.073434 13282.340356 7667.575582 5179.536665 2258.046833 9853.262657 29342.771816 27504.506155 24267.317262 21651.270246 17861.060329 13535.210191 11931.278534 6454.353320 6371.251617 4707.394815 3350.529249 28891.229596 26867.618791 23875.613136 21375.330247 17962.132210 13483.687212 12574.200242 7636.157964 6107.944211 6173.857142 3309.064249 28065.769285 25610.392260 23777.339128 20359.721051 18509.823502 13374.195993 12627.149224 6569.051427 6236.217250 7164.966421 2445.047859 27016.717433 24519.621047 23321.649283 19632.523904 18179.414238 13235.181097 12202.396369 8136.478068 6557.420174 6556.533923 5380.526409 26212.904977 24062.541287 22434.989363 19525.904167 17281.725010 13797.290088 10762.500817 10098.841565 4312.288561 8154.653524 -88.761875 25850.993534 23635.915992 21616.045855 19326.013549 16365.280403 14380.384140 9637.302617 10925.003880 1349.540166 9942.299118 3097.916876 25419.175514 22870.498185 21013.554088 19007.299699 15375.338488 14563.524702 9310.566443 10591.385507 1572.957461 9609.771814 3800.284521 24544.712087 21969.895060 20451.604918 18634.698070 14791.826277 14194.590772 9485.788674 10055.425707 3794.085052 6817.117249 4475.281245 23945.375740 21240.966099 19943.174457 18163.923961 14572.463499 13766.623684 9842.978634 9022.761118 5265.493691 3531.547459 5828.758807 23796.755818 20728.580778 19545.816232 17682.070193 14510.038250 13419.830889 10293.484763 8352.915807 6208.626475 2050.801720 8465.490874 23671.966459 20167.722472 19261.878462 17288.819398 14545.709001 13188.511799 10586.545192 7991.026089 7358.972566 1832.678140 11166.276505 23029.662466 19507.193535 18979.494520 17012.760568 14614.301200 13085.336119 10694.114636 7982.965195 8176.887856 1724.138137 13151.993938 22053.089673 19020.583828 18609.900584 16811.216318 14654.278393 13038.830624 10807.295181 8225.660556 8341.110315 1853.283471 13621.061131 21338.723720 18701.811351 18225.453814 16614.721815 14679.925520 12946.800784 10916.904717 8481.070158 8000.104911 2505.080540 11841.324591 20820.262016 18500.040939 17890.378346 16360.019428 14705.738368 12826.736328 11020.717692 8619.025375 7429.184296 3174.028116 8824.746149 20224.551251 18253.621888 17634.666188 16034.970479 14710.755804 12667.221912 10964.725980 8599.351424 6876.282759 3558.561207 6295.531533 19628.937501 18004.609524 17449.584034 15633.729205 14683.917782 12461.483668 10939.460270 8621.670658 6535.225438 3770.636734 4793.383789 19100.524793 17717.332617 17309.084064 15134.457333 14563.835125 12214.359759 10857.802574 8552.726756 6413.563780 3968.503225 3942.988116 18632.890290 17319.047107 17174.667673 14543.490990 14270.782118 11855.523458 10595.449328 8393.445303 6303.796693 4063.954950 3414.858755 18234.611826 16748.308344 16943.228071 13869.192479 13757.212878 11338.450662 10090.698196 8038.452471 6072.657088 3996.354082 2960.950937 17889.028620 16049.282077 16538.448988 13135.973902 13036.277267 10660.382766 9359.784492 7486.126148 5508.506592 3723.464904 2510.814508 17555.248909 15291.198416 15971.972733 12398.736964 12197.393027 9903.497125 8506.789513 6806.868942 4925.015764 3466.287895 2081.332140 17115.631528 14491.416531 15288.439135 11714.886237 11358.324740 9180.938827 7673.566298 6135.772286 4326.644926 3050.707788 1703.706160 16551.811565 13674.128188 14525.069148 11106.965772 10605.588152 8580.430768 6973.446658 5578.671727 3801.550170 2675.419456 1412.069778 15784.633720 12849.622155 13722.497712 10558.505250 9955.718407 8122.669443 6447.775355 5178.506121 3407.572774 2400.872267 1220.971365 14925.345788 12006.736263 12889.316160 10025.620358 9366.693041 7757.395487 6059.593195 4903.785787 3139.072449 2229.392394 1113.158989 13955.925525 11129.939299 12007.528609 9456.670328 8776.621370 7402.357035 5732.169427 4684.362334 2951.339607 2127.427853 1054.457794 12904.062081 10165.758890 11049.551834 8826.067236 8141.871036 6986.763907 5390.416889 4448.671038 2787.796597 2047.193369 1008.017770 11843.618044 9164.668827 10029.541247 8142.514791 7458.701531 6486.778189 4996.143586 4156.025730 2607.226657 1950.309070 948.990941 10914.920611 8391.732766 9075.702623 7446.507524 6759.149283 5928.225065 4556.757383 3807.623629 2397.648148 1821.599970 870.294254 10101.338004 7681.765359 8233.821961 6788.281744 6095.928053 5364.003387 4110.661707 3435.135925 2171.870636 1667.893386 779.357738 9420.311687 7092.194892 7516.241768 6213.476355 5516.340528 4847.623284 3703.739715 3080.810060 1955.028109 1508.701568 690.537866 8877.522533 6645.635478 6938.039894 5746.000761 5046.358814 4415.081295 3369.690259 2779.401756 1770.973574 1364.807511 617.232647 8441.306322 6314.723039 6482.204564 5382.144702 4690.764498 4081.041526 3122.745602 2548.606708 1633.854091 1250.536849 567.199871 8089.958998 6086.060740 6137.201155 5111.117136 4437.975394 3841.899135 2960.103337 2389.660811 1546.633647 1171.143774 541.701613 7808.788799 5941.684886 5888.543139 4921.173028 4270.846844 3683.457130 2868.865810 2293.613578 1504.050274 1124.343528 537.216371 7597.878382 5875.321636 5721.517260 4800.588945 4175.914222 3590.747399 2833.860253 2248.128572 1497.098820 1103.873363 548.101962 7458.159193 5881.500339 5630.926144 4742.293443 4143.440764 3552.802439 2842.626881 2242.418425 1517.151556 1102.828388 568.901635 7391.370835 5948.026624 5613.919628 4745.085055 4167.907415 3564.292830 2887.129293 2269.055459 1558.036617 1115.720865 595.691399 7408.693316 6077.696749 5672.772106 4810.737180 4245.883434 3622.714554 2963.393096 2323.894835 1616.012959 1139.074988 626.397798 7517.071265 6269.297651 5808.352441 4939.552362 4375.760632 3726.316706 3069.284036 2404.364498 1688.733742 1171.065941 660.285763 7711.542150 6520.313829 6017.153314 5124.782943 4553.977294 3872.572198 3202.532450 2507.802853 1774.177467 1210.559002 697.142383 7985.981090 6826.096831 6288.706144 5359.331226 4773.134876 4054.886084 3359.114853 2630.187810 1869.753827 1256.380217 736.585233 8320.656266 7162.029177 6604.405167 5634.669259 5022.827924 4262.224181 3532.798226 2766.245444 1971.594761 1306.970456 777.791219 8690.802995 7511.734766 6943.227433 5928.220842 5287.922276 4481.962190 3713.258537 2909.400377 2075.178901 1359.842502 819.575926 9058.830890 7852.246643 7284.231985 6217.236487 5551.584768 4703.306383 3890.419506 3051.417499 2176.094855 1412.136014 860.268090 9397.190848 8159.401758 7604.175585 6484.442675 5796.608525 4911.098457 4055.694973 3184.164164 2269.311508 1461.560443 897.845131 9694.128237 8436.840147 7889.257208 6718.380841 6011.527454 5093.349864 4201.631368 3302.420995 2350.479782 1505.842987 930.732015 9927.378940 8667.092483 8121.554165 6913.519631 6192.727367 5243.108895 4321.817494 3401.077872 2416.812332 1542.737825 957.732945 10094.876624 8845.336482 8285.048520 7055.570365 6330.129275 5353.947157 4411.901701 3474.894607 2465.508559 1570.457543 977.617112 10197.535707 8971.375456 8387.528695 7151.828220 6422.509978 5424.889656 4469.684399 3522.103524 2495.128428 1586.947277 989.558989 10228.090189 9014.066857 8417.861907 7191.449063 6455.759935 5445.741323 4487.016435 3535.184913 2500.980408 1589.005681 991.843053 10212.060173 9014.340091 8392.382703 7184.051059 6438.500371 5423.305860 4468.650985 3516.867544 2483.713506 1576.943554 982.841279 10143.353591 8953.940864 8307.437810 7125.839481 6369.394167 5353.342968 4405.005625 3461.256476 2440.816318 1548.722264 962.650845 10063.704651 8891.843622 8203.724360 7030.070275 6256.041178 5251.145652 4312.128623 3378.114244 2378.976067 1506.734669 930.983731 9952.205561 8770.407799 8069.389200 6921.504889 6120.218441 5126.552718 4198.161364 3277.163908 2308.714086 1461.884793 893.088250 9863.858492 8652.279680 7913.735462 6781.585938 5957.017352 4986.704591 4070.814478 3163.199643 2227.965883 1410.850668 851.782273 9782.866163 8525.896731 7796.430608 6664.685573 5799.868605 4848.995961 3941.678154 3060.471360 2167.756619 1378.768362 817.227232 9613.858045 8311.045917 7568.308957 6479.081123 5617.345700 4714.309397 3820.476211 2954.757137 2089.446567 1332.551660 789.722946 9611.431175 8275.792474 7517.858932 6357.943981 5434.568705 4546.369559 3663.541468 2850.686878 2046.593709 1319.439726 765.862695 9278.451949 7887.299964 7179.140055 6106.314569 5234.150143 4413.478246 3554.496452 2744.651723 1953.064842 1272.859143 761.374377 9319.467825 7943.012075 7155.037874 5957.962685 5019.602543 4185.927095 3341.064587 2607.583039 1886.303628 1218.873548 722.467133 8867.894425 7462.739549 6756.816583 5648.596339 4784.989045 4032.085896 3194.103242 2461.788326 1785.895446 1196.253309 729.051992 8743.362739 7380.164948 6575.597254 5413.239691 4507.765008 3717.375279 2980.906826 2333.441904 1617.268114 1001.035685 676.812683 8330.975832 6969.435580 6199.132528 5011.794836 4183.115921 3487.905447 2656.669475 2033.239334 1580.132455 1127.705396 614.735926 7750.252118 6481.413865 5653.260533 4663.593845 3717.333803 3185.265283 2510.031122 1930.075575 1286.344331 672.009960 670.298867 7444.416079 6199.083938 5123.764315 4064.272421 3366.603135 2528.791961 2008.785650 1605.399446 1350.638543 836.290956 448.260560 6466.122558 5119.362394 4635.710619 3533.692380 2784.748015 2425.983926 1929.024351 1192.851712 599.513547 844.594672 416.390276 6086.247430 4791.001395 3632.237338 2814.688517 1983.198027 1737.493924 1020.345841 1412.961914 1014.166875 93.517161 590.514743 5074.975754 3883.353634 3615.079106 2541.101063 1562.489272 1364.192988 974.492453 67.186166 559.039521 54.825029 282.287520 4093.573025 3612.252773 1977.745778 1476.151630 492.801625 793.235473 739.183282 328.992578 225.578550 447.886079 78.348388 4231.757779 2714.177121 2132.028253 426.229340 1161.856297 -337.625933 -74.162067 -304.670075 -397.138755 -365.995134 166.160551 1188.289928 2721.912756 841.210924 -27.885910 -1218.131253 -450.648642 322.145580 -807.435838 406.327765 -649.819251 163.389495 3056.884745 1098.078160 -308.440548 -209.814001 -1087.662869 -1032.080932 -1842.108850 -752.803619 -236.556133 -1142.929292 316.445375 554.347405 1429.309245 255.313045 -673.933300 -832.190370 -618.597201 -755.225645 -843.266763 -1421.339048 -412.988364 43.944753 2990.397180 -3049.614188 -1284.936973 -1857.341006 -2366.084813 -1844.113397 -1723.509831 -1310.195497 -867.420203 557.246907 -906.475565 33304.040080 31497.110009 28066.432538 26473.835027 23597.347618 20888.023602 19048.238802 16873.442125 13521.839795 10714.434445 7344.538453 5482.101695 -1227.027553 -8061.710571 38143.185085 34694.168985 32882.824326 30192.241621 28192.845173 25326.357723 22974.028032 19995.968042 17007.708199 13807.513484 12458.876020 4343.220978 5246.695921 1271.856334 37075.310474 34296.448722 31887.730936 28685.830252 26313.106412 23411.919533 20839.668068 18337.240303 16503.455161 12031.414834 10883.126587 7755.445222 2846.812685 2874.515606 32214.998130 30375.726857 29441.347417 27849.540803 25911.405409 24302.108566 22709.023316 20081.388274 17978.940620 16048.621010 12021.214598 7662.483287 3995.557912 2965.739543 34071.810257 31665.149288 29559.628376 26882.718575 25258.003976 23286.210750 21099.849438 18998.755055 16468.831462 13245.717096 11125.545505 8250.602110 4289.222169 2648.067204 29121.743729 30499.785698 27744.865729 26937.468712 24354.124423 21358.601394 19510.273803 17664.308071 16201.082892 14277.721966 11175.435396 7484.985995 4138.844048 2630.376552 35803.165700 35065.623186 31691.662509 25008.106091 22121.137941 20838.859322 19290.167021 17345.205472 14905.248647 12206.274929 10075.321296 7533.371898 3911.208593 2379.963467 26270.850352 29175.641521 21735.709815 21070.540260 22814.425119 19748.026722 16845.266574 15189.828377 14138.473040 12176.399909 9697.196283 6743.095474 3300.389569 2135.574913 30128.147961 21890.435731 19920.915669 23397.463453 20474.634733 17125.397850 15902.320376 15206.030583 13367.645001 10810.180158 9006.197996 6675.638960 3363.588929 2196.832139 26576.287783 20487.900319 17493.397737 21000.699154 18854.894231 16680.491589 15619.411115 14080.725477 11379.109411 10341.289242 8635.092468 5615.319537 2981.626990 2343.657807 17187.350595 18440.469268 16949.815629 15314.522904 13587.652358 13354.633978 12387.548551 10653.512684 8915.035105 9275.283334 7701.888835 5155.436651 2975.440519 2452.670989 13611.922641 9108.439603 17901.535000 15034.669816 12339.895754 8857.145950 7626.353744 8165.048228 8439.672186 8559.531200 6572.230547 3742.339537 1811.349869 2413.093446 14148.084625 10931.070305 6142.205103 11042.752736 12799.228471 13401.871007 10384.405808 8634.968815 8544.597626 7933.598948 6908.484892 -235.811003 1975.259287 2300.449323 -772.033962 6684.054387 -1725.883343 7048.640589 -49.999582 -767.233625 10965.332883 11626.127151 815.167233 11726.772652 9073.092216 2575.059113 4964.508793 2328.617656 -2965.344287 -7090.849923 6697.117075 5821.832442 -9273.459161 3949.379714 1798.788088 3809.028530 -2395.759325 5371.935414 8530.022681 8341.349807 3309.988540 3524.573108
</DataArray>
<DataArray type="Float64" Name="Velocity" NumberOfComponents="3" format="ascii">