<VTKFile type="PolyData">
<PolyData>
<Piece NumberOfPoints="1945" NumberOfVerts="1945" NumberOfLines="0" NumberOfStrips="0" NumberOfPolys="0">
<PointData>
<DataArray type="Float64" Name="Pressure" format="ascii">
 16199.837686 16889.549986 17239.650681 16681.436652 19942.313674 19015.341307 21092.528207 18787.033083 19196.215246 17473.322655 20119.982242 18486.358547 19987.933761 17792.744201 21980.753164 19020.716325 20331.161016 18310.082597 19005.106910 17649.865872 17735.375354 17607.325937 16925.462975 17027.986251 17008.504746 16786.975761 18365.371572 17801.215126 18318.576624 16853.542495 18263.497205 16593.848736 15581.046508 15633.118697 15826.146849 16469.798127 17884.772426 17756.347673 18775.700048 17157.099056 20249.498216 17136.837531 20917.037458 17500.111239 21615.020281 19082.491988 17644.848041 17187.080758 19781.491870 18626.367106 18285.914078 17890.516751 20093.561042 17625.948978 23465.056516 20283.140640 17782.044685 17021.345825 19526.792673 20193.824103 17132.843448 18815.576374 19965.190320 20946.890575 18005.256335 17369.161855 21654.618297 21698.327923 17538.134392 16412.522612 17118.006590 19211.560887 18960.373876 20520.192094 18640.174290 20166.501562 18829.141130 19651.206918 20796.538830 19836.585178 20418.579272 19168.820721 20606.752415 19858.952705 19473.104494 18675.562568 19808.381652 20486.320403 17204.878903 17038.988605 20904.587837 21894.088206 16977.897135 17541.917138 19551.500587 20646.629519 19136.414026 18632.480417 20005.958904 21006.655572 17656.293875 20475.582142 17044.070410 19822.140295 18907.189335 22243.753618 17008.678096 18986.044609 20398.101288 21178.219728 20442.417111 18948.936115 22308.636891 21033.925413 22294.256127 21964.275823 19805.318138 20802.700737 22573.914820 22780.826322 20087.734996 21464.697807 21229.958480 22291.515803 20604.443741 20781.338520 20110.636536 21483.504030 20797.575410 21190.791465 19911.865050 18959.688726 20346.135612 20747.178392 20371.062361 21403.170665 20844.237059 20506.399305 21902.309664 20227.079916 21662.681926 19845.596744 21585.902099 20309.029757 21385.703159 19386.310641 18457.501503 18442.715252 19653.796005 19273.375231 19902.113336 18605.579035 19412.341953 18860.558279 20602.788776 19063.272172 20173.336506 17740.630922 22679.377959 18870.236576 21847.842929 18564.772690 22765.979533 20068.538374 22486.122911 19467.701058 21172.368370 18812.225576 22063.215367 19533.952515 19363.796033 18921.574974 20452.573758 20965.830557 20535.927801 20849.875901 21011.582764 19849.777253 21022.754635 19862.588619 18255.838713 18977.868255 17392.117619 19248.878915 18699.326649 20288.711740 20315.698000 19293.413902 20904.872853 19248.126454 20848.691251 19262.857728 21453.906461 19778.674625 21944.717554 20584.229990 21075.786143 20844.583189 20033.903930 20741.541571 19807.401048 20926.414715 20840.705197 20768.629733 21885.381591 20395.664962 21225.595201 19283.200281 18873.892401 17915.570998 16692.218129 17381.465405 17076.738578 14425.396870 11678.174033 9399.537186 7455.704797 5998.206630 4554.642484 3598.707048 3164.982401 -346.266343 -3883.497493 -4535.426648 -4561.180020 -4489.343226 -4373.344688 -4212.221803 -4017.407106 -3800.880002 -3574.223016 -3348.076489 -3131.615115 -2932.159904 -2754.980925 -2603.273086 -2478.269182 -2379.457485 -2304.874945 -2251.447495 -2215.348494 -2192.347720 -2178.127594 -2168.549711 -2159.862061 -2148.844200 -2132.893202 -2110.057183 -2079.025479 -2039.085499 -1990.056120 -1932.206696 -1866.169451 -1792.851609 -1713.352152 -1628.886912 -1540.725893 -1450.154515 -1358.524811 -1267.775590 -1184.094206 15536.055100 17436.334481 17206.582786 14127.302770 11544.117912 9798.560873 7549.927189 5933.958104 4475.499977 3146.785739 4142.008975 -563.432454 -5262.557589 -4559.898866 -4480.958911 -4465.831719 -4361.376293 -4204.615482 -4012.613550 -3798.494078 -3573.996885 -3349.715304 -3134.757260 -2936.404051 -2759.918716 -2608.516411 -2483.470734 -2384.325345 -2309.181703 -2255.034117 -2218.123228 -2194.280710 -2179.242224 -2168.911893 -2159.568684 -2148.011776 -2131.647517 -2108.524463 -2077.325360 -2037.325856 -1988.329685 -1930.589263 -1864.719424 -1791.610584 -1712.346147 -1628.127272 -1540.205411 -1449.813001 -1358.026857 -1265.180883 -1167.238899 16232.201308 18179.078325 17515.340743 14267.679480 13993.500663 12603.462150 13119.303685 12555.056485 10512.349012 9842.755213 7800.164747 7572.936663 5894.600299 4933.243582 4220.249684 3546.810819 2939.236713 2381.158039 1885.357627 1457.071574 1094.378684 790.970471 538.752699 329.552682 156.001915 11.865714 -107.934022 -207.438403 -289.820739 -357.559485 -412.595147 -456.464110 -490.408156 -515.460924 -532.513681 -542.363255 -545.745202 -543.355178 -535.861325 -523.910109 -508.127673 -489.118346 -467.461569 -443.708161 -418.376538 -391.949240 -364.869502 -337.535083 -310.271279 -283.177103 -255.140978 17504.519273 18138.376567 17010.659708 14951.253853 13596.011340 12689.562479 12070.904405 11295.548326 9973.915542 8879.335908 7631.200652 6621.362929 5678.624074 4881.643394 4194.038205 3551.992656 2946.957563 2391.618235 1897.374728 1469.266937 1105.757414 801.020875 547.331691 336.735572 161.965354 16.814984 -103.803137 -203.956079 -286.847777 -354.986284 -410.338254 -454.461965 -488.616791 -513.849960 -531.062795 -541.059204 -544.579402 -542.321832 -534.956036 -523.128909 -507.466398 -488.572267 -467.025232 -443.375362 -418.140435 -391.802745 -364.807111 -337.563143 -310.469946 -284.067890 -260.045962 -1121.566124 -1092.326978 -1094.390463 -1065.695178 -1026.045966 -1009.132810 -938.518132 -936.125664 -860.600203 -860.527760 -787.443863 -787.776280 -718.458896 -718.867504 -653.630225 -654.055048 -592.982522 -593.408473 -536.497740 -536.918057 -484.110386 -484.520507 -435.714654 -436.111121 -391.172681 -391.552875 -350.322155 -350.684163 -312.982976 -313.325488 -278.962984 -279.285198 -248.062806 -248.364348 -220.079905 -220.360749 -194.811910 -195.072315 -172.059315 -172.299765 -151.627622 -151.848778 -133.329013 -133.531669 -116.983606 -117.168653 -102.420364 -102.588760 -89.477714 -89.630458 -78.003916 -78.142023 -67.857224 -67.981716 -58.905892 -59.017775 -51.028031 -51.128289 -44.111364 -44.200948 -38.052894 -38.132716 -32.758513 -32.829441 -28.142556 -28.205410 -24.127327 -24.182877 -20.642606 -20.691572 -17.625145 -17.668194 -15.018164 -15.055914 -12.770855 -12.803874 -10.837895 -10.866703 -9.178981 -9.204052 -7.758379 -7.780144 -6.544501 -6.563349 -5.509504 -5.525786 -4.628917 -4.642948 -3.881291 -3.893353 -3.247877 -3.258220 -2.712330 -2.721178 -2.260438 -2.267989 -1.879873 -1.886300 -1.559971 -1.565427 -1.291524 -1.296144 -1.066604 -1.070505 -0.878398 -0.881682 -0.721067 -0.723822 -0.589617 -0.591922 -0.479793 -0.481714 -0.387981 -0.389578 -0.311133 -0.312458 -0.246702 -0.247802 -0.192592 -0.193509 -0.147128 -0.147903 -0.109036 -0.109709 -0.077446 -0.078058 -0.051911 -0.052507 -0.032446 -0.033075 -0.019593 -0.020314 -0.014508 -0.015389 -0.019079 -0.020201 -0.036070 -0.037533 -0.069307 -0.071229 -0.123885 -0.126410 -0.206429 -0.209727 -0.325382 -0.329655 -0.491330 -0.496817 -0.717375 -0.724351 -1.019524 -1.028308 -1.417121 -1.428076 -1.933288 -1.946821 -2.595378 -2.611943 -3.435422 -3.455514 -4.490548 -4.514706 -5.803366 -5.832160 -7.422278 -7.456306 -9.401693 -9.441567 -11.802128 -11.848461 -14.690149 -14.743538 -18.138129 -18.199135 -22.223794 -22.292915 -27.029519 -27.107170 -32.641364 -32.727842 -39.147802 -39.243261 -46.638155 -46.742572 -55.200702 -55.313845 -64.920473 -65.041870 -75.876740 -76.005647 -88.140222 -88.275589 -101.770048 -101.910452 -116.810618 -116.953961 -133.288880 -133.430689 -151.215093 -151.338284 -170.605529 -170.617736 -191.631739 -190.996962 -215.655181 -210.955768 -234.655787 -226.607407 -242.359622 -234.161542 17021.747186 16595.054340 13979.550146 15948.767122 16274.457595 15294.521479 15621.425932 15607.659436 13328.638880 12292.258177 14388.898661 14241.182165 15424.507388 15362.204821 15617.210136 9609.858286 6638.964178 12847.940350 12743.439339 15363.015913 15584.310514 10351.140548 17764.225770 14387.012308 14086.774374 16195.530450 14630.915318 16521.990988 12180.951580 15055.354769 13453.888839 2965.546187 16373.245176 16204.845955 15417.851950 18010.426720 10455.450293 15163.592965 16147.826957 14897.727506 10096.930740 13096.232754 11433.474932 16183.732060 12754.540582 8947.095465 16854.811099 17834.783823 17005.575311 13718.128699 17718.429170 13567.821841 6870.984716 10215.389605 13675.926734 18568.331969 16165.029908 16246.995836 17655.074442 15379.949004 13030.239241 17387.015762 16398.852772 15358.022755 13784.611033 16243.310619 15547.341749 12671.901385 17105.912532 16243.896200 17023.145536 13839.682275 14772.438259 15382.671831 14616.633656 15306.996641 11109.083493 13670.358978 15769.178751 19137.896593 14961.437880 16918.869278 17015.551156 12911.428276 13747.436914 14572.818664 8330.120619 12465.550051 17298.793569 17613.963078 10500.537014 13586.590493 16251.140294 14073.517948 14626.142614 16335.486144 16978.563127 6542.569614 14139.153593 17629.639660 16510.139397 15039.601196 13745.425528 11836.881605 16371.494421 11604.360122 14090.301739 18933.977289 7759.797092 13088.695528 19106.636423 16886.399296 14556.539951 8924.129105 17687.892293 13558.824097 13793.684805 11051.474871 11873.893497 7204.793705 6683.101428 19831.161453 16558.563305 11419.883352 18953.232213 10365.786360 12923.708699 10518.319275 13562.749714 12755.471894 14888.855567 13263.180308 19604.267392 18696.780058 16128.913405 16136.985117 12039.350632 16385.892856 12760.853469 8430.305174 15889.070608 17743.236979 13542.840008 19288.288615 16559.626433 19600.322596 19067.639650 18965.844263 15627.994961 15620.830887 10748.208381 14885.916130 9667.429416 12568.161178 19886.782531 17650.464062 19731.453484 19298.772540 15131.034034 19145.931413 13614.040935 14562.157751 9250.243825 9854.402362 9940.052112 20607.162646 18365.369469 18129.145967 14193.129442 11573.547748 13224.961288 13100.861028 12776.841951 5583.207784 6213.605645 935.191075 19646.174101 21380.690619 19014.323829 19945.161489 16666.326899 15797.173226 12403.567739 16843.020586 11043.831019 1667.679473 4761.906473 21350.479143 15313.869369 19778.408518 14088.032453 12065.554469 5505.172619 9181.241899 8624.369203 4527.005299 5851.336070 5167.969676 20790.085917 16361.908291 16660.587086 18211.289402 15589.775494 8451.579737 16344.750635 8921.886070 9645.255819 5504.080966 5858.799617 18969.941819 19712.971574 18903.658378 16237.095437 10603.173620 11119.340513 10505.383067 8628.472320 3146.149044 2745.244530 3236.268214 18447.736761 18792.054043 18441.500889 16186.793020 13749.283812 7943.239677 7608.262380 6216.765565 4336.467467 5643.642327 5359.315836 18307.113476 20056.110906 13680.124107 11359.160224 13777.286860 8173.231733 8375.447322 8121.180323 7020.815214 5618.547124 2673.495568 18846.795713 18768.526793 18703.840335 14685.568849 15359.634921 14200.237372 8134.580115 7210.953795 7355.593507 9068.670121 5499.199923 18247.645507 18573.801283 14006.650818 15379.506664 11897.906048 14225.738725 15985.860430 12225.267833 9851.141901 9138.682719 5831.330963 18055.652610 16146.644020 16163.303906 16251.035703 16241.360100 15393.252797 10643.113318 3983.200348 13455.020305 4932.040670 6515.620185 19819.865469 16661.692293 18901.633822 19673.703026 17678.279744 11866.941261 10376.950850 10955.765698 9485.205378 6559.004355 991.697982 19884.933011 16580.030166 19953.416371 15350.000138 18041.364493 7706.775426 14349.510223 7768.159338 6978.292074 3576.525304 5387.578886 18001.845187 16927.804470 13060.995177 14768.036688 12609.546723 15225.093779 11767.574738 12952.401165 4208.917767 6354.163566 10687.725962 19287.325575 20580.812124 18214.373221 14885.672284 16194.574858 11152.817339 8851.663955 10888.315253 7525.394333 12347.840151 5080.634616 18961.952483 18080.173947 13785.439958 8810.597222 16462.817139 7643.449968 8883.841764 8290.127891 9747.743810 6290.764039 8576.848102 18979.241923 19591.467003 21566.269784 16579.680413 15438.935570 8686.272364 13427.247513 8593.748979 9705.205865 10636.629441 5469.793917 19631.521869 22471.169273 17322.639729 16687.254899 17053.663193 13901.260046 12539.808771 13627.828906 11243.546152 10328.468955 6960.839471 19486.574334 12341.263265 20462.292492 13932.440513 16823.174933 13299.632721 7547.727658 8412.413785 4171.525192 7427.721642 6433.639137 20260.157138 19541.210513 20186.491232 13346.522724 17387.399280 12238.671943 7922.949666 8734.721479 6359.314408 7193.236000 6654.242336 19768.757087 19279.011076 17668.622266 15191.084567 17311.961736 10759.675574 12220.966367 8255.674980 5796.158997 8172.211810 5059.911537 21088.062441 19914.376846 17181.303585 14989.969257 14480.236341 14736.896907 9638.054027 16445.579289 6932.042001 8619.948783 7819.913268 21391.567911 17759.711092 14916.496738 16701.352178 20067.187902 13763.636986 11813.214610 9720.176894 13461.368038 8201.276085 2460.080771 19553.677839 19180.060572 17723.236060 16003.630248 12380.836165 12754.358864 14726.816350 12983.442136 14631.731476 2342.016859 9382.675653 21323.750734 21957.610332 18838.465257 14372.989024 17563.465611 12601.208889 13741.302314 7372.754377 9436.045937 5941.219148 7074.616457 23884.080567 16863.559858 21301.304042 16467.351112 8288.686506 13232.450052 10876.890622 9658.814649 7109.922874 11597.803375 5991.695562 20766.728838 22278.810104 22714.990710 18338.145045 17474.563270 12708.459998 8410.667773 7859.299889 11364.081798 -4712.587916 6152.062478 18713.258813 18196.717300 15730.786602 15828.525815 12657.113477 15564.218385 14343.714772 11017.675968 8053.716328 8396.564393 1446.585534 22327.766065 20318.601911 18314.910461 14226.261275 18223.857187 13001.320274 14645.528433 9066.149019 11503.787112 8823.939499 5468.304673 19525.184544 19338.421211 18156.247399 19778.830280 13413.841575 15475.058265 10407.184623 7820.086627 7867.399277 8594.410261 6401.469190 19701.291955 22293.034293 16854.746925 10541.772421 11969.694510 13926.831607 6642.869712 16567.236398 7578.263612 11015.078963 8570.194922 20677.192778 20126.711324 19510.191466 9183.886605 10862.201092 12405.486154 8728.506329 10501.704804 5606.795501 10079.164438 2464.883022 19755.434325 14623.942675 13676.078933 20085.548821 9681.036669 15913.927095 12327.866983 5422.266805 8751.106961 10619.232002 6199.813721 20919.890236 20137.294194 15975.125346 17796.307636 12773.648363 12679.301117 8145.437176 15805.394694 11872.102113 -6969.572153 7549.754476 18294.103479 19808.545601 16159.251178 13368.781963 7998.242094 14153.156307 14260.143602 7657.213141 12400.499325 5326.355660 3974.361120 19598.504668 14969.527002 19580.262564 17342.360323 13184.404976 12524.672194 15343.141145 12777.526387 13362.692214 9429.510127 -534.985218 19485.891624 17020.564833 19080.140086 16170.938696 14765.185919 16373.291832 9518.982426 12304.717637 13126.831767 9531.936999 8933.704577 21728.540780 20334.835260 18180.316164 15034.294799 19712.344932 14061.801414 14696.340120 13202.928713 10039.096525 7287.868522 -715.932395 18877.630220 18966.760229 17717.494866 18701.055497 14457.677725 13907.999085 12834.341451 9323.573033 10773.692766 9200.209891 7544.736789 19384.989616 21725.170488 18480.684548 18989.830265 20426.089912 14448.747660 8693.209227 12324.411527 8218.191452 8521.045246 6845.450725 22574.213882 19886.115147 18168.159936 15694.732189 10910.903017 10029.259957 10010.514559 10445.547297 4378.280056 4269.826668 4598.024293 19960.689081 20744.177168 18657.167392 17119.906966 11468.032314 10700.289190 8578.301508 8271.590512 8944.209020 7389.874315 6776.482591 20814.354918 20453.087139 20161.253142 10863.374993 10792.141338 12748.574245 11579.683067 8845.875583 7383.018822 7541.420506 2918.090389 21079.641100 20037.001482 14975.056625 10138.624525 16664.630031 11637.728851 11270.906816 9555.735340 9712.591461 8312.472555 10644.824053 19764.372627 17291.086287 18947.923601 18358.037253 13137.608078 13037.135920 13232.969879 14448.326922 10232.312082 8533.050484 8015.710716 19942.863318 18596.996164 20731.216388 15388.523377 14083.071276 13292.593243 13473.093955 13621.477808 10123.925159 9250.637210 8710.811525 20722.221062 16491.551936 19308.544504 17015.244043 12998.254245 14230.936290 9852.610957 7495.234439 9718.050759 8893.356493 4388.419910 21355.215336 17212.055955 19132.479370 12325.447231 16637.330657 13046.505541 10589.801460 8140.615374 8845.128143 6831.521818 7239.884270 18667.643371 18234.000176 18573.090195 16047.184661 16193.218497 16366.112262 16977.408016 8004.207170 7094.920917 8731.586654 9111.543325 19657.383172 20128.074662 19106.745479 16274.059391 17497.110450 13624.021017 11363.693116 11628.336524 8543.879292 8370.336491 5415.063498 18239.637958 17768.556220 17697.541972 17982.429614 14600.156150 15492.621993 14465.514917 8730.232673 11692.499787 7900.791855 6265.740965 19370.651652 18829.215620 17422.669189 16548.553506 11442.882145 13558.635879 14555.694598 11084.926143 9573.630135 4998.770625 6804.972821 19459.871846 17066.600385 17881.670269 17213.288294 13357.226748 15816.402705 11018.876913 10008.990090 7780.677298 8673.509917 3988.794872 17840.757563 17223.037180 15724.521057 17694.574354 12896.569647 10884.259157 10322.739906 10557.750626 9747.790167 6640.781456 5919.939557 16349.354075 19366.117452 15204.003641 13876.930811 13027.729860 12286.571813 14127.280189 10695.025175 12899.276178 8331.694449 4596.653066 19360.862686 16104.827251 17887.715206 15900.892486 10925.473223 12929.786946 13007.319820 8499.344837 8806.843280 11601.109118 5919.883708 17946.895882 17360.990504 15990.989889 15683.061842 12972.686311 13822.315241 11410.146890 15912.629421 9994.099953 11349.169903 5665.147402 18254.219391 14973.334675 18824.624817 16601.903303 15260.622285 11195.661357 12312.494562 10628.473232 12549.877916 9946.280756 9270.654511 16632.297057 15076.353375 15224.020476 14313.609308 10188.352387 13927.810611 15761.938089 8956.790856 13337.936399 5476.232056 1086.137201 17944.811093 15793.747238 15749.697973 19914.443788 16640.057942 16169.406486 12280.248826 9183.905765 8453.571677 7083.704379 4699.594894 17883.298190 15810.673538 14761.090155 16588.119635 16103.792131 13864.435162 11037.200472 10639.046622 8965.354336 8105.490438 5842.187169 16172.041555 18772.663863 16138.061468 16966.596821 14491.898092 11791.296159 15988.588240 7395.436932 11145.621358 10089.620608 6882.972911 18315.716345 15718.632269 15555.141812 15486.685924 14505.895415 14242.630927 10395.298014 9729.476867 10598.758373 8037.975390 7350.437551 15841.521428 15689.473209 16617.487088 16447.911323 15758.009371 12839.570201 12239.312049 8942.302407 8189.267288 7600.501446 6458.291885 18706.360684 14366.117726 16322.019849 14001.352470 16155.945840 15074.565556 15666.156694 13210.504968 10925.237625 6961.573424 8181.537663 15303.059982 17284.082356 15930.651140 16525.193195 14498.233508 11641.280290 11989.083420 10071.954661 12089.826214 4336.337522 8226.061643 19488.788759 14696.800805 19802.033729 16642.911572 12676.246166 14906.225782 9362.808906 12977.141332 13172.334983 4980.816452 3558.328225 17556.514460 18647.588660 16502.577735 17204.182754 17456.819668 15758.745091 12922.614580 9548.580293 11083.559418 11672.275726 6893.932453 19101.163433 17541.004300 19517.731231 17204.349675 16818.690069 15597.199685 12848.872020 9407.262274 14381.465943 11505.362332 4955.177969 19172.011257 17925.811550 16874.248082 16660.005852 16784.011953 15182.009383 11969.696275 14372.703988 6916.520826 8773.379315 5910.125351 16935.620657 16166.155822 16600.935469 20708.950283 16475.580962 12442.508756 15293.862784 11973.878894 11794.596472 10857.338307 5574.736094 19594.825884 18191.491304 12955.438484 16303.297049 17149.448668 14450.737061 14875.323014 11666.334222 7004.013057 5754.418899 7782.210007 19239.447891 18420.716294 16593.371396 17695.708577 15332.261956 13598.963235 14440.656604 11738.011581 7695.640426 7167.948507 5521.987612 19372.376011 16989.325112 15662.485473 17053.733081 14736.675570 14624.923042 11517.063110 10144.951946 10398.424591 5448.836417 5393.383239 18596.816295 15905.884147 16482.107628 16738.363322 15689.184591 11680.739086 12263.819418 15610.330117 9090.679405 7036.407645 3719.822457 20195.375483 20103.796510 14549.273148 16216.595323 10594.153333 12038.407927 13972.657365 8676.647496 8750.043723 3521.150644 3276.012241 18923.611472 19418.623979 16272.314298 15482.406142 9808.900995 11235.943430 13076.574353 7579.884719 9858.356837 8459.333768 2855.434996 16955.637267 18079.114084 11948.978918 17401.651369 10138.127274 13742.003466 7379.465648 11241.165594 4619.881153 6490.704294 6362.566340 16388.024432 19060.948168 17330.768782 17377.965923 16910.675033 12212.953344 13302.941808 9739.335244 10416.621470 4667.635158 5424.306297 20130.032925 16821.041487 16697.991368 15935.306993 17448.943701 15277.340067 7992.523157 15683.494404 7355.128648 8126.418802 3479.398826 20459.967742 14920.275295 14727.204289 12213.242870 15295.622946 12697.432554 10488.506175 7640.647116 3803.325629 6379.972573 6917.170237 18813.618464 17982.525346 16581.487172 12337.496930 13157.992917 10111.828641 10838.691308 7446.991688 8212.167821 9146.311434 4772.019030 18409.898540 16780.676038 17572.244609 10211.107794 11711.335720 11831.177099 8554.826134 11080.308865 4963.803714 6722.090603 6291.493674 17076.916176 20297.750253 17382.571203 12787.040855 13831.095860 6616.894467 9946.018068 8857.637959 7762.324200 3132.030952 7819.424926 15891.223551 14835.098610 13731.082713 16499.709782 12233.353384 11495.810172 17894.027322 4703.862324 8441.419484 8060.268722 5889.573243 16743.729516 18959.408465 20688.850302 17469.726898 11069.127572 17519.056674 13787.642793 7919.827932 6073.842582 5682.103052 7850.267056 15271.890657 17132.860740 14926.193051 14188.626851 13724.042146 16098.481871 14197.165708 15415.676281 5376.162739 6924.262420 8831.012316 14988.595051 16227.220264 15703.061138 15532.449946 8992.904051 14304.979007 11143.358177 16340.975971 15313.759962 9446.114606 9800.667670 4404.914710 4015.251721 5841.997316 14756.322062 6222.704009 14865.788194 15477.076796 6696.116333 14554.827076 7472.641157 4034.821636 13988.801198 6076.553964 6669.631147 5308.308403 2022.062045 7692.890012 6916.385165 11774.084338 9942.787229 6232.931725 5368.658585 7652.639989 7198.506521 10060.944436 11025.841052 2868.169352 5320.577398 3912.747176 4416.564740 2691.698884 11284.183580 10005.446151 8023.882338 12175.967895 11598.581858 12366.930466 10404.406361 11882.701516 2748.963241 13750.679775 9810.307643 6908.582551 4173.823750 3984.494146 11333.522446 14955.739012 12404.999914 9170.417430 15610.571165 10376.361933 11995.805252 7939.903876 11509.633712 4826.913175 4400.154140 8165.994118 3621.415190 443.609410 10925.257178 14821.095424 9139.381518 14719.457815 13249.307803 13626.699563 15029.212106 6310.291389 6916.278443 4991.747115 9241.410034 6371.786580 10371.804804 3441.729640 15984.814738 3696.216982 11397.710686 11041.702238 5242.367726 15646.221462 13698.165516 12771.329256 9776.875578 6584.731254 7902.740278 6677.158404 2982.320687 5239.420957 5809.158152 8672.703371 7100.848168 12520.104600 9806.103601 9962.171468 9120.763007 9303.408640 4565.737238 6607.736601 10076.568316 5062.155011 2622.117018 5211.412868 14408.941953 13901.002986 5267.119259 4315.818490 9909.771591 8545.400617 6411.895540 6379.723047 5352.369937 7817.598693 8278.298371 5583.738818 4757.817468 4675.125370 6524.138613 9099.120456 10561.169527 6536.674008 11162.228110 7640.057088 8115.074213 7158.590642 10116.919766 4480.030336 5439.876031 4862.939636 2626.945100 4728.411254 7073.305240 8482.922541 19899.867839 13382.698051 7650.253310 7488.793829 6967.291665 11156.728034 7759.284215 9173.751398 14519.112830 8998.022287 5150.545562 2618.582071 8901.441330 4557.576329 10022.178508 18599.632086 8871.726120 12427.114828 5881.088055 12139.781336 4712.825276 7699.036931 8285.848244 14072.419418 3954.019052 4392.347969 7927.713172 5068.752448 3577.017944 10019.998180 6065.881447 5143.078409 8481.899457 14616.642732 13506.343431 8069.475663 4301.243569 6676.180546 6892.573446 4736.179710 3132.896854 10310.895101 7100.960626 4327.010580 7866.873953 4087.689765 5347.455422 10308.651370 5039.426598 11864.271587 6358.660621 5121.371583 7408.327592 5487.771267 5034.114431 6248.203151 5288.832575 4126.187612 3465.737619 4839.530050 9565.669967 5613.405824 3576.842402 3145.640128 2528.536701 4064.851570 4919.484750 4971.252842
</DataArray>
<DataArray type="Float64" Name="Velocity" NumberOfComponents="3" format="ascii">