<VTKFile type="PolyData">
<PolyData>
<Piece NumberOfPoints="1945" NumberOfVerts="1945" NumberOfLines="0" NumberOfStrips="0" NumberOfPolys="0">
<PointData>
<DataArray type="Float64" Name="Pressure" format="ascii">
 13381.489219 7583.250287 8638.036894 689.500943 7750.619532 2734.850358 8653.074036 4684.268925 9423.445172 6774.433278 6863.307323 5510.077372 5495.714351 4174.256325 8358.301998 8229.674548 10353.227531 9821.206000 11521.044354 8992.282180 12561.039963 9521.864255 15164.675189 13923.686064 14023.532448 10895.723110 14522.135310 13991.281614 11581.189094 9932.028936 10577.746704 9273.632043 11507.908451 10956.984608 12445.388582 10835.329119 14523.713684 13901.999185 15380.538980 14002.718643 15636.544982 14171.679300 13681.007707 12529.001765 13874.250551 12116.918267 16995.161351 16077.289804 18584.648907 17790.825488 18868.873035 17940.824212 19458.534649 17937.947098 19263.626643 18493.591276 19282.785346 18880.161793 21033.723206 19817.543207 21376.423990 20865.282698 19529.980343 19467.942894 18700.503891 18956.467265 19409.995122 19798.642715 18798.811917 18915.836203 20260.194822 20469.048305 20496.486216 20757.502226 19185.039646 19077.340186 19586.735763 20551.370742 19417.055394 21121.624317 17812.152631 16641.794283 19648.578169 20860.424308 16912.270856 16374.112336 19165.817879 18435.133861 18157.628345 17967.526629 20061.813162 21340.096337 18908.846655 18567.157499 20717.434321 21777.367729 20023.091328 21458.684808 21670.680391 24624.400504 21794.259887 21955.799547 22604.543110 24724.445735 19185.863985 17791.125893 21877.115736 23866.698587 24701.916437 24295.430108 25592.216930 23840.988144 25507.639011 24967.823813 22385.903228 22274.984481 23007.815144 22997.188851 20890.499075 21049.541637 21874.854364 22279.844353 20500.419359 19613.230995 20887.661223 21076.732237 21796.903444 20766.596907 23584.689212 22263.037589 25545.663576 25982.879451 21524.366521 19949.083639 20202.549092 19917.816928 24326.902804 26147.316429 20552.058949 18835.511912 22455.611514 23105.225153 21576.539736 21982.537600 22566.769535 23845.971553 20336.902768 17593.123318 23280.752984 21750.101105 18667.219776 13938.952995 22593.712472 22281.174632 18933.952545 16541.402514 18820.038506 16493.446516 18286.548896 17146.926038 16647.127260 16062.792890 16863.730543 15856.132205 17120.421486 17704.943656 16321.600613 16363.456622 18104.322050 19511.126795 17143.594991 18324.990564 18247.742693 18662.188625 16944.532691 21253.106135 17806.594368 21236.751891 18723.910162 22746.349342 18109.458351 21039.834823 19105.206918 21861.051749 19875.229324 22377.590505 22408.044885 24990.376509 21707.435463 23340.578325 21818.299604 23129.044083 20671.955880 22266.559178 21156.672586 22823.544729 22452.610332 24211.045715 24124.947759 29847.370175 21962.937927 23256.871224 25684.101643 25762.633078 28461.653607 28878.673916 22924.920830 25523.167238 16513.371589 17877.751173 5649.959350 6402.283441 6300.793795 5243.905083 4715.919399 4372.417727 1482.487747 -855.267944 399.595806 2333.877628 -151.457318 -3619.027878 -2298.851209 -381.909757 1161.449672 -2851.210346 -5524.115751 -4378.558887 -5273.813092 -8974.638785 -9706.543056 -9020.490383 -8637.507216 -8148.974578 -7589.112325 -6977.561171 -6337.585897 -5690.980836 -5056.019580 -4447.058168 -3874.658365 -3345.917450 -2864.923971 -2433.281572 -2050.643204 -1715.210372 -1424.170512 -1174.061746 -961.065178 -781.230869 -630.646211 -505.556017 -402.443242 -318.078381 -249.544518 -194.244006 -149.891884 -114.501425 -86.373864 -64.149318 -47.294083 -305.972981 1889.565121 3497.551310 2095.585921 1200.236928 3128.760239 879.936555 -2568.896742 -1168.821317 3491.882839 684.148170 -3981.906809 -2316.318375 -26.768856 -199.336488 -6045.061489 -6926.695101 -3795.532448 -2131.324658 -6726.013665 -10192.424600 -8924.916012 -8585.666381 -8128.087168 -7577.975639 -6972.239651 -6336.930292 -5694.109948 -5062.068602 -4455.210031 -3884.180453 -3356.184583 -2875.428497 -2443.631892 -2060.553664 -1724.486302 -1432.691695 -1181.766514 -967.936277 -787.283501 -635.918259 -510.100243 -406.321200 -321.355752 -252.287618 -196.517142 -151.754843 -116.003591 -87.523774 -64.726062 -45.675723 21274.021965 20989.184066 19420.049321 19277.522425 16365.841971 14358.497410 14027.145403 10276.057140 7812.220302 5307.015974 2285.161744 2169.225992 1836.545239 1698.367694 1497.876982 1263.538944 1032.763351 828.252786 657.665989 519.614015 409.130230 320.840596 250.215375 193.759410 148.803462 113.245543 85.364491 63.714475 47.072393 34.410196 24.874977 17.769547 12.532039 8.715388 5.967954 4.016135 2.649315 1.707165 1.069068 0.645434 0.370624 0.197254 0.091651 0.030295 -0.002942 -0.018894 -0.024668 -0.024805 -0.022109 -0.018218 -0.013901 17453.789928 16599.977952 15531.383412 14075.964190 12616.664202 10939.645575 9026.239665 6975.540472 4831.590166 3335.413811 2347.218059 1985.906751 1838.963060 1688.941690 1490.526566 1262.477829 1036.541744 834.228610 663.890957 525.131966 413.680148 324.497899 253.153858 196.140820 150.747322 114.834248 86.656873 64.756692 47.903925 35.066193 25.386758 18.164516 12.833631 8.943222 6.138173 4.141832 2.740987 1.773132 1.115857 0.678103 0.393046 0.212351 0.101599 0.036686 0.001041 -0.016505 -0.023309 -0.024094 -0.021803 -0.018224 -0.014556 -36.517065 -31.738867 -33.885252 -29.592999 -26.798393 -24.655214 -19.141647 -18.954526 -13.981925 -14.058666 -10.204770 -10.300297 -7.409824 -7.488342 -5.347406 -5.407618 -3.834627 -3.879886 -2.732366 -2.766043 -1.934638 -1.959498 -1.361195 -1.379410 -0.951737 -0.964987 -0.661314 -0.670883 -0.456680 -0.463541 -0.313437 -0.318322 -0.213816 -0.217270 -0.144980 -0.147405 -0.097718 -0.099409 -0.065473 -0.066644 -0.043610 -0.044417 -0.028880 -0.029431 -0.019014 -0.019389 -0.012448 -0.012700 -0.008103 -0.008272 -0.005245 -0.005358 -0.003377 -0.003451 -0.002162 -0.002211 -0.001377 -0.001409 -0.000872 -0.000893 -0.000549 -0.000563 -0.000344 -0.000353 -0.000215 -0.000220 -0.000133 -0.000137 -0.000082 -0.000084 -0.000050 -0.000052 -0.000031 -0.000032 -0.000019 -0.000019 -0.000011 -0.000012 -0.000007 -0.000007 -0.000004 -0.000004 -0.000002 -0.000003 -0.000001 -0.000001 -0.000001 -0.000001 -0.000001 -0.000001 -0.000000 -0.000000 -0.000000 -0.000000 -0.000000 -0.000000 -0.000000 -0.000000 -0.000000 -0.000000 -0.000000 -0.000000 -0.000000 -0.000000 -0.000000 -0.000000 -0.000000 -0.000000 -0.000000 -0.000000 -0.000000 -0.000000 -0.000000 -0.000000 -0.000000 -0.000000 -0.000000 -0.000000 -0.000000 -0.000000 -0.000000 -0.000000 -0.000000 -0.000000 -0.000000 -0.000000 -0.000000 -0.000000 -0.000000 -0.000000 -0.000000 -0.000000 -0.000000 -0.000000 -0.000000 -0.000000 -0.000000 -0.000000 -0.000000 -0.000000 -0.000000 -0.000000 -0.000000 -0.000000 -0.000000 -0.000000 -0.000000 -0.000000 -0.000000 -0.000000 -0.000000 -0.000000 -0.000000 -0.000000 -0.000000 -0.000000 -0.000000 -0.000000 -0.000000 -0.000000 -0.000000 -0.000000 -0.000000 -0.000000 -0.000000 -0.000000 -0.000001 -0.000001 -0.000001 -0.000001 -0.000002 -0.000002 -0.000004 -0.000005 -0.000008 -0.000008 -0.000014 -0.000015 -0.000025 -0.000025 -0.000043 -0.000044 -0.000073 -0.000074 -0.000122 -0.000124 -0.000201 -0.000205 -0.000326 -0.000332 -0.000520 -0.000529 -0.000817 -0.000830 -0.001262 -0.001280 -0.001915 -0.001940 -0.002852 -0.002882 -0.004163 -0.004188 -0.005970 -0.005913 -0.008543 -0.007922 -0.010860 -0.009690 -0.011850 -0.010612 1312.769557 8020.579384 4441.921387 5100.393924 5244.649180 4573.817748 6655.013519 1029.632234 2698.882463 6796.892793 2175.341906 6414.663114 2388.761048 7836.155899 4688.288342 3303.161501 3788.623554 10463.527774 3768.462191 3612.358753 9123.415326 5773.623179 12523.855678 7509.880273 11088.983630 6270.539824 5671.002010 7032.077148 2622.364795 5893.676447 7941.429697 3455.351519 8597.793166 13828.051025 9806.539549 10452.756187 9349.620144 8349.817422 8093.873455 6604.192242 2382.991009 8678.425410 6838.229749 8070.699667 8428.833212 5276.696204 10878.348738 10284.827495 10611.314584 12623.151656 9349.336019 7470.385627 8695.213047 9584.283747 10248.570655 11140.193763 12325.971049 13943.435149 15137.943954 11144.326442 9674.307026 11451.660030 8736.421994 5991.427928 4908.175257 11058.654660 11806.046636 10314.336092 12609.213771 14441.741907 7758.666437 11763.987485 10301.626574 14236.159167 8691.685977 9397.034588 6057.052216 13590.396628 11729.206791 13517.652845 14009.632648 12604.768345 10145.766188 7524.177141 12059.401163 8734.841798 10089.298650 8498.494684 12422.900561 13933.786634 14911.477179 13096.124297 15827.877344 15873.026094 9675.107795 10544.530662 10635.046796 8681.384865 8985.610318 15457.812350 16627.758862 15478.175635 16148.219550 11043.564382 16908.661729 15161.760955 13697.996580 10402.752285 7214.060112 9678.247138 18650.198062 14979.940883 17310.237724 10897.114294 15704.780638 14617.167339 12000.837855 10993.331877 10313.278788 8620.051335 9299.507367 16463.350040 17642.052862 13031.857155 17393.432278 12131.518358 15209.524020 9574.651338 11449.099164 10002.130791 13069.457335 9469.353040 18717.527659 17180.867243 18172.265819 13354.732462 14293.860583 15665.530307 13545.134705 12628.603300 12917.130066 12515.801019 8549.114098 17551.037752 17995.243051 15408.793955 17375.748642 14807.257954 14384.115625 10267.786007 12225.762910 13427.273338 7930.042207 4573.462702 19133.994881 17979.777623 19788.145145 17052.076997 14783.313405 14730.902233 11816.114159 10439.133383 6820.155080 8277.295488 1017.871892 19732.019826 19055.767737 18414.357211 14293.992409 11379.292126 10627.508970 10849.535148 8725.706697 3522.951597 2283.689981 1074.913651 15382.783560 16687.738988 16157.670774 14486.247260 13149.491868 13853.261878 12108.338067 11530.059696 1812.006044 588.190072 797.452209 19155.851333 16558.174248 17243.197289 14363.936059 9737.258988 9306.047879 8773.289431 6081.048600 1805.758184 2139.042774 4426.415962 19209.085989 16488.129552 14539.041064 16510.850716 13168.371916 12720.417022 4171.268559 6903.874884 4785.102085 1585.153765 1040.146050 17863.130903 19468.681081 16128.983103 15788.574011 11506.160757 10762.251446 5244.340020 4870.934272 908.489628 2551.852766 175.617905 19590.065466 16150.408948 18248.205574 12498.237047 12423.246356 8997.055290 8637.706345 1323.714841 4008.807599 2194.062382 3481.507123 16550.445554 16311.364579 17669.643031 12388.420011 10277.586031 6932.301867 2960.532770 1870.141657 9064.817104 1077.933536 2299.603925 18372.041244 15208.114919 17482.839627 13813.335311 12640.162280 10801.524398 7459.298804 4642.361245 468.083134 352.404427 480.795738 20396.047523 17099.459895 16900.211673 12530.479171 9818.163122 9939.682918 7492.248936 7541.763424 5009.366914 6986.722683 2213.029316 18517.716001 15072.411206 16030.213034 12531.091353 11937.668744 13637.074551 6114.090584 3699.811321 4966.779401 3436.709810 4065.373456 18034.763676 15587.299485 17565.889857 16473.851336 13877.679952 7371.475958 10244.870366 7722.013322 3721.245408 5419.741874 1581.982696 17514.134086 15439.161396 16409.824736 14846.601102 13422.707531 11039.597142 9140.915567 5913.189854 4348.765878 2393.999373 1816.806005 18643.120887 16936.805075 15196.605358 13234.558801 12734.721766 14281.438570 8526.444435 6302.349446 3081.580012 1400.314475 2509.802997 16075.057512 18114.903203 14538.062137 16075.260261 14876.380705 11128.664557 6465.639770 6979.615419 7412.757156 5621.919726 2177.314600 20274.012527 17125.036652 15748.247562 11717.109778 12708.195094 8063.424693 9408.654887 5321.564795 5742.487549 1122.595966 4193.379414 21027.983085 19586.931480 16241.360012 16613.923807 12499.584306 11555.007097 8436.781178 4896.026333 4934.860479 3197.446505 -230.009416 19369.128889 20017.164794 13688.741279 17884.868026 12557.738763 11809.512118 9086.269418 7514.159529 5308.881666 5576.467382 -18824.393021 19190.432216 15478.010633 18212.565408 15245.324417 11831.623623 10880.782102 9678.388780 9662.976964 4944.717459 4147.250462 3898.841433 19045.706711 21226.877304 16352.381961 13671.692835 13279.144459 11932.800677 9889.666144 4846.995264 4253.816553 6412.782962 5535.984750 19450.651007 19011.963057 15305.388081 15883.763175 12655.783331 10397.179447 9116.233703 7465.962198 3442.359370 7469.953953 1909.622054 23245.582577 18912.128425 18934.225733 15734.357321 13439.763704 11364.013103 10741.005935 9760.159271 5968.811914 3232.864463 3485.759051 19162.689824 16998.437437 17744.718572 14700.808176 13683.755001 13703.094903 12404.367677 7355.980732 8181.177927 6352.734567 3816.770568 20346.264563 20460.033779 18479.108303 15931.238026 14866.811419 12035.653352 9484.486660 9711.893556 7905.826711 1224.080198 4630.029797 23489.533574 20717.738110 19808.072479 17983.666012 15092.554848 12343.746421 11553.047171 7882.161045 7321.109848 4783.390507 -4700.395487 21669.691055 20291.934315 18784.848432 14931.764556 13310.994874 8894.991406 8866.512000 7940.262996 5225.180525 8365.489679 2992.975151 23756.973738 20010.814489 19271.892442 16628.804695 15131.921407 10977.058170 9152.005811 6906.050205 5045.665839 -4511.915219 3771.282236 19531.987364 18090.872971 18280.857366 16347.117739 14515.346259 11970.144479 11459.140027 6331.289669 5969.641174 5328.661864 -2637.231451 22885.402694 21458.108065 18950.199323 16257.930906 15252.943056 13119.047833 11326.903969 9781.273849 4533.305277 5176.362442 3885.300782 19085.316521 17068.474205 17320.590259 15171.549737 15519.935358 13351.664942 8524.744146 7692.948206 5737.110230 5449.298895 2206.059692 22612.405057 21676.489276 18998.657540 13287.479511 14620.446561 10348.182014 8459.777517 5425.426583 2149.222462 5982.440162 -12.616414 20661.726475 20201.305226 18046.878136 16204.900444 12712.038862 11013.332446 8573.281102 4725.600281 -1472.548965 3122.300588 -5593.010502 20686.806778 19401.533370 18018.496110 14138.024596 12820.061045 12702.676109 9242.405031 5104.390096 5357.638655 5447.690392 3350.312928 19318.646453 18576.054329 17548.002998 17852.569733 14668.045493 13416.807831 8612.938251 9582.244314 1388.681079 -3186.820859 -622.560570 20777.300701 21397.440138 18509.162344 17163.188402 13492.684194 14083.792364 11079.241957 11791.256987 4491.249964 4911.459351 4983.674888 20401.274025 19789.880767 17708.967053 17301.250777 14414.657567 12254.516674 10452.058774 10328.468484 5200.949066 4019.515386 -559.177746 20020.381910 19794.794112 16708.433199 17810.953038 14780.739493 12793.410994 11584.637455 8695.923673 5898.893733 1615.895607 -13100.796623 22208.837151 18553.851850 17472.838940 16017.395300 14072.937921 15509.990994 9153.970076 9218.337309 4717.374370 4156.101145 5337.390736 23187.395499 18795.367171 16281.091414 15846.088195 12329.545067 13990.010123 9092.115591 8420.301276 4988.595508 6332.690110 359.204989 21585.981145 18159.847226 18327.254182 19344.407465 12247.765916 13898.750999 13454.507253 6057.532233 9968.763964 3114.484968 11184.680970 21832.442280 20376.912830 16370.284174 17334.976218 11362.401138 10477.850845 7376.933776 6806.969025 3123.711385 3444.981246 18677.820953 19705.759980 18848.309854 17055.921759 17372.653097 12972.514409 12510.241059 8991.220034 5221.985198 3752.755197 4415.457019 4820.073979 22744.436489 18408.157052 17002.728223 17232.945853 13076.639795 12049.512066 10010.651399 6084.772440 3560.861116 4430.738660 -6510.874937 19065.697508 18451.459825 14589.541432 13940.956599 13271.875597 10941.114440 9869.064063 6023.756098 5941.305955 5090.772120 2283.259859 20747.413992 19704.597199 14506.892075 14236.356978 12208.891812 11444.609288 8935.373681 7947.354983 5677.170912 5853.343450 8609.910459 19059.419749 19708.710285 14193.847268 15191.006098 11211.538758 12353.752496 8963.846979 6415.764383 4177.493854 3654.101437 5169.315035 17608.376688 18902.554468 14290.982827 14897.722522 9646.663030 11333.655017 9761.057585 6509.056862 6871.382092 5526.657470 21355.398946 22477.142984 18203.778559 16847.245487 16077.963310 9116.344697 11283.190265 8341.449225 8230.542722 641.593218 3403.098545 857.000311 19758.304140 19365.391081 14593.460318 16218.031693 10688.148253 10279.026794 7632.462733 8304.351817 5562.550750 3380.116166 3057.239980 20862.351260 18096.423486 13457.399019 13177.009939 12660.768451 9271.928870 8358.954036 8013.387545 7947.038780 1910.462165 3637.465954 18569.261579 17385.677873 16511.772860 13090.673567 11120.453132 8446.817519 8063.120445 7330.991013 902.992436 5011.087575 4944.808409 18502.939904 16237.747781 16206.081858 13592.609720 10414.316439 9660.411225 7433.358646 7050.548506 6479.650933 574.612664 11807.393119 21357.301386 18970.783102 15227.515000 13047.795073 11305.182296 9214.597948 6542.496690 5877.198340 6818.100393 3896.378577 2545.761688 17381.065685 16635.220252 14595.579398 12423.038650 10234.293306 9260.213471 6431.179667 5313.887891 4407.509220 1106.541235 4679.004286 18064.353216 17303.729015 14446.176060 13820.095208 7593.303700 9721.841747 6161.588347 4770.209075 5463.756440 4799.549743 6854.241102 18815.359655 16064.462133 15075.814491 13311.405125 7600.095204 9712.676988 6168.427512 3842.551971 5241.640155 3190.569532 1160.344584 17541.584128 17484.841031 15457.035416 13532.313795 10343.270521 9408.742379 7202.536446 3064.683693 4406.892828 2766.633067 2880.353651 19146.221827 15644.020322 12492.337326 12652.112378 8779.359434 7788.712483 7938.445634 1955.765373 4564.612474 2746.515360 2476.589544 14890.806868 15200.687436 12715.715117 12495.085236 10947.300139 6961.238963 7935.424735 2414.939896 5073.670485 3190.312212 5280.560626 15206.147472 16569.229305 14681.855712 13094.868090 10914.243055 7839.634777 7922.903050 4352.620590 3842.570298 4106.786344 -898.178333 16087.862191 17213.466248 13301.970700 12797.231809 10523.217752 8332.577137 6340.989098 5503.874979 2114.380065 5317.656621 -1873.762212 15634.744502 15769.670285 12871.190004 10804.230928 10450.690264 9199.835721 7093.560086 5826.815432 1355.089395 5034.941806 2963.815602 17516.215696 14293.853139 13944.394526 11390.758740 10624.126421 9146.267132 5195.032995 7865.882392 527.932628 4858.985071 4596.867714 15799.320405 14494.025273 14631.044731 11470.085366 10818.867811 9254.027956 6088.794513 8943.852038 1067.019430 5011.500581 -3667.900080 17074.295382 13791.012819 14155.474769 11700.091997 11085.439194 8255.555568 3908.952983 8210.525421 -1908.099496 7278.366452 -939.880605 15982.810718 16221.738914 13405.387122 13768.092193 11599.496768 9673.244716 6664.285135 8109.574342 -187.949612 9851.113953 1403.176736 17450.422272 14951.135243 15020.591570 12388.620654 9688.699350 9884.112536 5826.117747 7857.402519 640.493281 6063.920742 -4370.516942 16908.283124 17373.178735 15669.569822 12639.907903 11074.008002 10060.066660 4791.106757 7075.597043 1042.539372 3346.219137 -5783.176682 18649.366567 16945.073798 14478.839926 14518.524859 11714.627045 10806.253365 7236.481973 6914.081676 2556.202646 1848.497702 -4298.746303 18631.784412 16067.903646 15788.133595 13517.005688 11478.214526 11546.886517 6655.696292 6676.557620 2097.482240 1800.345155 -1450.889667 19908.277308 17588.470915 16297.322594 13533.144567 12145.361023 9948.207798 8030.408143 6034.620591 4333.999287 561.994278 2252.433693 21170.312531 18138.036272 14555.210931 15076.909999 10174.164599 10756.279659 8004.539535 5607.156883 5644.588700 1536.681536 5453.885357 18541.528623 17975.901046 18222.829708 14949.313538 14027.242693 9308.249879 8744.883178 5095.029953 5253.352201 1855.439162 7555.343720 19195.064547 18601.241797 14829.590953 15773.030908 12103.402005 11282.497176 7332.921245 6460.804409 6111.259529 1372.777491 9959.673051 21109.836743 19253.460783 17964.776637 14151.860398 14521.103098 11275.823467 9732.867124 7024.364848 7193.022189 2221.343890 9014.484856 22273.618390 21120.324035 17041.747157 16028.490777 11320.080710 13517.904678 9200.675318 6939.319864 5632.686946 3617.261005 6200.302441 22326.708234 18463.601876 19458.420898 15630.989367 16582.711227 14468.705568 9754.858967 7808.611998 5636.393804 3267.664286 6002.291989 20379.967209 21775.381158 17550.614222 17947.896048 11792.110335 13815.253368 10290.825027 8485.259281 6736.343505 6533.645646 5301.713506 21316.684011 19787.491918 20156.430559 17075.782828 17208.154710 12742.813873 10657.357317 9364.721566 6070.004020 4796.787356 5322.035343 21084.611096 22901.663225 20544.870304 16625.695207 14737.309729 13127.778540 9348.364336 9170.823651 7611.508807 4457.018334 3798.830709 22076.137281 18539.322856 21313.417257 13999.781486 18345.352152 12678.109701 14662.982778 12088.610691 7242.762019 1957.095270 5649.813728 20471.553811 19505.039849 18076.671751 19938.157901 17279.673482 16211.302637 11005.600877 9109.059241 6383.241381 3922.168024 2278.590500 24072.896011 25290.743789 20649.603175 14694.999347 18299.618107 10646.308571 14856.289400 7507.718436 5241.732304 3884.904375 3410.320254 21765.807504 22423.581214 21367.931386 22535.868000 14214.835017 16068.986283 9700.374155 7756.951888 5906.458519 4041.454806 4960.949164 18704.342212 17900.360069 14218.086864 20200.581987 18469.678451 10407.388804 14367.697255 7270.963354 10364.504479 3712.847852 1566.017549 19345.789004 25098.668875 23480.286448 22606.233939 16648.694887 17831.126296 11146.857007 2613.786584 5699.659865 4675.369499 2327.807065 23731.396253 20510.415554 15157.152995 17317.430134 11623.540664 10884.184982 16583.388060 15305.468002 8189.899117 5894.216989 6397.980224 1186.441920 5995.813099 2326.398520 1326.639942 2938.905426 931.844851 2276.240667 1412.488855 -2036.043444 985.756152 2985.692904 120.668059 1696.186283 -9706.029722 3355.361179 1406.853790 6966.985108 2537.352414 1127.795768 2118.447137 4564.776045 421.297294 216.430251 -1346.618028 -786.983498 2740.847148 -234.321598 -1241.810985 3402.221744 3782.493872 5856.555661 3422.951765 -1182.894793 2139.986743 5888.602397 588.599177 2226.447218 1565.493787 1062.610669 4135.151721 846.560412 -992.585865 5967.962699 6033.832755 3517.978719 7150.325690 4417.798512 5698.854494 4938.608948 2284.736171 4242.341683 205.846731 -244.258700 2593.628472 818.436786 -1188.388058 7369.416207 8654.731569 5668.888389 2669.726849 6317.097332 5736.913715 5227.901773 2283.937288 5692.638491 1931.900710 1832.054958 -550.078529 634.699297 654.992888 6971.873222 9788.242832 3939.219908 9719.821030 10315.488590 4643.133903 5008.245703 3684.717784 3110.986542 4885.695958 3366.046567 3386.926405 2048.351150 2023.764542 12413.031867 4813.368713 8492.360350 6066.025496 3010.292636 4307.127814 8022.401514 5181.300927 3662.662666 908.087352 821.857863 3499.066042 274.168039 1110.652654 7425.240865 10512.911646 8403.557221 8024.350138 5181.644665 8208.589410 6800.142781 3266.451776 795.048752 3916.743379 2939.963104 312.587891 1918.839865 777.807550 11335.184963 9213.984056 -528.250228 6103.852564 10379.012445 6894.292818 6020.788007 3384.639797 3037.583216 4451.018988 4555.376323 4643.741600 3214.974927 4526.710588 8766.792871 6943.835309 9982.541939 4269.670292 8807.795845 4319.164595 6999.584198 6711.071703 4890.620065 3573.489679 6115.487532 5027.029714 2808.111179 -2109.199773 4954.850898 10194.795038 9293.398827 4873.184219 4050.332485 4154.621131 5308.308653 7093.733169 5784.721713 4513.379573 1807.231290 1567.920234 5203.377368 9010.111795 11274.378541 4751.712992 7510.139891 11957.416750 6058.501380 5938.427214 3416.081731 6343.737408 6836.086776 5996.470186 4672.085368 5393.068326 5987.919458 3120.385686 7372.409928 3587.470488 745.358778 4836.506942 620.598235 2957.992161 6008.710064 7870.436389 9765.450321 8018.632744 2806.391825 3295.204964 849.905796 761.917109 -228.019431 2479.520023 1698.683018 2102.763871 5000.463589 2335.245766 4195.384629 4500.168536 -447.384195 6574.794953 4270.267678 1264.287845 1733.844918 6676.495225 2181.253118 2248.968479 1380.296859 2551.739763 2331.721398 1501.772749 3478.005183 518.082699 1915.306874 818.978590 3736.331568 784.419239 -146.218568 1610.420371
</DataArray>
<DataArray type="Float64" Name="Velocity" NumberOfComponents="3" format="ascii">