<VTKFile type="PolyData">
<PolyData>
<Piece NumberOfPoints="1945" NumberOfVerts="1945" NumberOfLines="0" NumberOfStrips="0" NumberOfPolys="0">
<PointData>
<DataArray type="Float64" Name="Pressure" format="ascii">
 960.142151 1972.219509 2762.427192 7344.962556 5100.501299 12849.709384 5963.022413 13214.289962 6306.767114 13768.802971 6494.188512 14212.875385 6594.916462 14518.237292 6644.695822 14701.243360 6667.633808 14794.200843 6677.832099 14839.539063 6682.131898 14860.304409 6683.858774 14869.188901 6684.526242 14872.819566 6684.774796 14874.240482 6684.864337 14874.774540 6684.895704 14874.968737 6684.906424 14875.037348 6684.910009 14875.060980 6684.911187 14875.068945 6684.911568 14875.071580 6684.911689 14875.072438 6684.911727 14875.072713 6684.911739 14875.072800 6684.911743 14875.072828 6684.911744 14875.072836 6684.911744 14875.072839 6684.911744 14875.072840 6684.911744 14875.072840 6684.911744 14875.072840 6684.911744 14875.072840 6684.911744 14875.072840 6684.911744 14875.072840 6684.911744 14875.072840 6684.911744 14875.072840 6684.911744 14875.072840 6684.911744 14875.072840 6684.911744 14875.072840 6684.911744 14875.072840 6684.911744 14875.072840 6684.911744 14875.072840 6684.911744 14875.072840 6684.911744 14875.072840 6684.911744 14875.072840 6684.911744 14875.072840 6684.911744 14875.072840 6684.911744 14875.072840 6684.911744 14875.072840 6684.911744 14875.072840 6684.911744 14875.072840 6684.911744 14875.072840 6684.911744 14875.072840 6684.911744 14875.072840 6684.911744 14875.072840 6684.911744 14875.072840 6684.911744 14875.072840 6684.911744 14875.072840 6684.911744 14875.072840 6684.911744 14875.072840 6684.911744 14875.072840 6684.911744 14875.072840 6684.911744 14875.072840 6684.911744 14875.072840 6684.911744 14875.072840 6684.911744 14875.072840 6684.911744 14875.072840 6684.911744 14875.072840 6684.911744 14875.072840 6684.911744 14875.072840 6684.911744 14875.072840 6684.911744 14875.072840 6684.911744 14875.072840 6684.911744 14875.072840 6684.911744 14875.072840 6684.911744 14875.072840 6684.911744 14875.072840 6684.911744 14875.072840 6684.911744 14875.072840 6684.911744 14875.072840 6684.911744 14875.072840 6684.911744 14875.072840 6684.911744 14875.072840 6684.911744 14875.072840 6684.911744 14875.072838 6684.911744 14875.072830 6684.911741 14875.072795 6684.911731 14875.072648 6684.911690 14875.072057 6684.911523 14875.069778 6684.910879 14875.061369 6684.908500 14875.031775 6684.900072 14874.932606 6684.871511 14874.616905 6684.779111 14873.666458 6684.494780 14870.969498 6683.663553 14863.757401 6681.358940 14845.743529 6675.345173 14804.186228 6660.601857 14714.037432 6626.772331 14532.929897 6557.287999 14227.913221 6428.897971 13777.616274 6125.399847 13246.500047 5116.244016 12698.233232 2731.461508 7068.809994 1262.215878 2070.234213 2506.138154 1821.717497 1111.617670 609.487316 313.318035 154.727013 76.954810 41.328972 26.052562 19.889410 17.527030 16.660868 16.355692 16.248071 16.199605 16.146560 16.021387 15.683716 14.799485 12.646120 8.370003 2.916083 -20.667004 -214.496841 -854.422667 -991.173892 -473.698558 -151.075821 -43.641911 -12.405194 -3.447130 -0.937699 -0.250062 -0.065498 -0.016881 -0.004288 -0.001075 -0.000266 -0.000065 -0.000016 -0.000004 -0.000001 -0.000000 -0.000000 -0.000000 -0.000000 -0.000000 -0.000000 0.000000 -0.000000 -0.000000 8874.450138 6216.705949 4257.535779 2464.346474 1438.429690 781.007831 422.301695 242.252137 156.283694 118.357965 102.557703 96.301333 93.967517 93.079683 92.629682 92.125441 91.043142 88.479346 82.548478 69.641534 45.800934 19.652638 91.320928 -136.817222 -3296.302275 -3327.873602 -653.441948 -185.029326 -62.042430 -19.457531 -5.838906 -1.693223 -0.477639 -0.131646 -0.035568 -0.009444 -0.002469 -0.000637 -0.000162 -0.000041 -0.000010 -0.000003 -0.000001 -0.000000 -0.000000 -0.000000 -0.000000 -0.000000 0.000000 -0.000000 -0.000000 8788.279928 6090.209560 4144.865120 2399.582193 1399.539091 748.267605 377.700329 177.849249 169.038798 -90.144656 -3189.228848 -3127.945419 -476.367241 -93.392276 -26.783373 -7.560790 -2.098849 -0.571439 -0.152690 -0.040091 -0.010359 -0.002638 -0.000663 -0.000165 -0.000040 -0.000010 -0.000002 -0.000001 -0.000000 -0.000000 -0.000000 -0.000000 -0.000000 -0.000000 -0.000000 -0.000000 -0.000000 -0.000000 -0.000000 -0.000000 0.000000 0.000000 0.000000 0.000000 0.000000 0.000000 0.000000 0.000000 -0.000000 -0.000000 0.000000 2422.842027 1800.292116 1148.187994 658.687187 353.942026 176.837494 81.390556 26.057384 -25.589449 -112.774713 -477.317586 -549.812090 -262.361176 -105.190547 -36.136651 -11.509138 -3.484896 -1.017069 -0.288317 -0.079789 -0.021633 -0.005762 -0.001511 -0.000391 -0.000100 -0.000025 -0.000006 -0.000002 -0.000000 -0.000000 -0.000000 -0.000000 -0.000000 -0.000000 -0.000000 -0.000000 -0.000000 -0.000000 -0.000000 0.000000 0.000000 0.000000 0.000000 0.000000 0.000000 0.000000 0.000000 0.000000 0.000000 -0.000000 -0.000000 0.000000 0.000000 0.000000 0.000000 0.000000 0.000000 0.000000 0.000000 0.000000 0.000000 0.000000 0.000000 -0.000000 0.000000 0.000000 -0.000000 0.000000 0.000000 0.000000 -0.000000 0.000000 0.000000 0.000000 0.000000 0.000000 0.000000 0.000000 0.000000 -0.000000 -0.000000 0.000000 0.000000 0.000000 0.000000 0.000000 0.000000 0.000000 0.000000 0.000000 -0.000000 -0.000000 -0.000000 -0.000000 -0.000000 -0.000000 -0.000000 0.000000 -0.000000 0.000000 -0.000000 0.000000 0.000000 0.000000 0.000000 0.000000 0.000000 0.000000 0.000000 0.000000 0.000000 0.000000 0.000000 0.000000 0.000000 0.000000 0.000000 0.000000 0.000000 0.000000 0.000000 0.000000 0.000000 0.000000 0.000000 0.000000 0.000000 0.000000 0.000000 0.000000 0.000000 0.000000 0.000000 0.000000 0.000000 0.000000 0.000000 0.000000 0.000000 0.000000 0.000000 0.000000 0.000000 0.000000 0.000000 0.000000 0.000000 0.000000 0.000000 0.000000 0.000000 0.000000 0.000000 0.000000 0.000000 0.000000 0.000000 0.000000 0.000000 0.000000 0.000000 0.000000 0.000000 0.000000 0.000000 0.000000 0.000000 0.000000 0.000000 0.000000 0.000000 0.000000 0.000000 0.000000 0.000000 0.000000 0.000000 0.000000 0.000000 0.000000 0.000000 0.000000 0.000000 0.000000 0.000000 0.000000 0.000000 0.000000 0.000000 0.000000 0.000000 0.000000 0.000000 0.000000 0.000000 0.000000 0.000000 0.000000 0.000000 0.000000 0.000000 0.000000 0.000000 0.000000 0.000000 0.000000 0.000000 0.000000 0.000000 0.000000 0.000000 0.000000 0.000000 0.000000 0.000000 0.000000 0.000000 0.000000 0.000000 0.000000 0.000000 0.000000 0.000000 0.000000 0.000000 0.000000 0.000000 0.000000 0.000000 0.000000 0.000000 0.000000 0.000000 0.000000 0.000000 0.000000 0.000000 0.000000 0.000000 0.000000 0.000000 0.000000 0.000000 0.000000 0.000000 0.000000 0.000000 0.000000 0.000000 0.000000 0.000000 0.000000 0.000000 0.000000 0.000000 0.000000 0.000000 0.000000 0.000000 0.000000 0.000000 12736.553881 7877.661890 6861.751215 4134.245281 2612.331868 1495.411814 799.720576 430.979643 241.746954 152.699723 113.701557 10790.377501 6643.126684 6847.034891 3984.443647 2707.775238 1589.052371 838.933730 431.967989 212.759865 106.005075 58.460133 12084.726401 8105.461154 7703.335199 4475.996966 3110.991306 1823.157153 968.124363 501.744109 246.480672 121.249876 64.332611 12739.536577 8466.895756 8010.672191 4800.440431 3360.791579 1964.798478 1046.881450 538.611306 257.423283 118.782083 55.519534 13142.664950 8784.318060 8349.757900 5065.201957 3531.508586 2068.213294 1107.307637 568.788593 269.864140 121.972929 54.081964 13427.665823 9037.403236 8574.889898 5222.678744 3639.119031 2137.466029 1147.043286 588.705390 278.535869 124.627294 53.693679 13578.581970 9170.457585 8693.372280 5312.940753 3704.654562 2179.173630 1170.697617 600.910629 284.101326 126.529278 53.731488 13655.670893 9242.012883 8759.381129 5364.199450 3741.121000 2202.134677 1184.042955 608.076693 287.533972 127.872952 54.001273 13692.771731 9277.888966 8792.579139 5389.873610 3759.462346 2213.975212 1191.129658 611.966513 289.453935 128.683232 54.230328 13709.193673 9294.197212 8807.836269 5401.898534 3768.260876 2219.786981 1194.665355 613.942876 290.460906 129.133569 54.380875 13716.106527 9301.259532 8814.555898 5407.294011 3772.268392 2222.470280 1196.323842 614.889370 290.951675 129.352107 54.449763 13718.885911 9304.172246 8817.365822 5409.581243 3773.990043 2223.641921 1197.059272 615.305914 291.149044 129.414564 54.438352 13719.953824 9305.315644 8818.483869 5410.505164 3774.696434 2224.128727 1197.358477 615.447152 291.172409 129.294052 54.105206 13720.349442 9305.747627 8818.912156 5410.864260 3774.973816 2224.316348 1197.450819 615.430973 290.950443 128.412614 52.637393 13720.491491 9305.905512 8819.070644 5410.998469 3775.076653 2224.376766 1197.445432 615.305872 290.330113 126.156388 50.747338 13720.541087 9305.961492 8819.127384 5411.046518 3775.111457 2224.386536 1197.401149 615.115269 289.437725 122.059520 45.021730 13720.557993 9305.980821 8819.147068 5411.062848 3775.121441 2224.380801 1197.353874 614.966782 288.812997 119.767734 40.943099 13720.563639 9305.987337 8819.153680 5411.068031 3775.123421 2224.374093 1197.321499 614.881505 288.556269 118.931619 39.979900 13720.565490 9305.989484 8819.155828 5411.069540 3775.123372 2224.370090 1197.305873 614.841367 288.489882 118.757758 39.745609 13720.566087 9305.990177 8819.156505 5411.069942 3775.123077 2224.368233 1197.300136 614.826352 288.464554 118.724471 39.709756 13720.566277 9305.990397 8819.156713 5411.070042 3775.122902 2224.367484 1197.298331 614.822358 288.457387 118.715359 39.702543 13720.566337 9305.990466 8819.156776 5411.070068 3775.122835 2224.367224 1197.297770 614.821393 288.455951 118.713545 39.701178 13720.566355 9305.990488 8819.156796 5411.070075 3775.122815 2224.367152 1197.297617 614.821154 288.455667 118.713252 39.701008 13720.566361 9305.990494 8819.156802 5411.070078 3775.122811 2224.367137 1197.297586 614.821107 288.455617 118.713208 39.700997 13720.566363 9305.990496 8819.156804 5411.070079 3775.122811 2224.367134 1197.297582 614.821103 288.455615 118.713206 39.701002 13720.566363 9305.990497 8819.156805 5411.070080 3775.122811 2224.367135 1197.297582 614.821104 288.455618 118.713210 39.701007 13720.566364 9305.990497 8819.156805 5411.070080 3775.122812 2224.367135 1197.297583 614.821106 288.455620 118.713211 39.701008 13720.566364 9305.990498 8819.156805 5411.070080 3775.122812 2224.367136 1197.297584 614.821106 288.455620 118.713212 39.701009 13720.566364 9305.990498 8819.156805 5411.070080 3775.122812 2224.367136 1197.297584 614.821107 288.455621 118.713213 39.701009 13720.566364 9305.990498 8819.156805 5411.070080 3775.122812 2224.367136 1197.297584 614.821107 288.455621 118.713213 39.701010 13720.566364 9305.990498 8819.156805 5411.070080 3775.122812 2224.367136 1197.297584 614.821107 288.455621 118.713213 39.701010 13720.566364 9305.990498 8819.156805 5411.070080 3775.122812 2224.367136 1197.297584 614.821107 288.455621 118.713213 39.701010 13720.566364 9305.990498 8819.156805 5411.070080 3775.122812 2224.367136 1197.297584 614.821107 288.455621 118.713213 39.701010 13720.566364 9305.990498 8819.156805 5411.070080 3775.122812 2224.367136 1197.297584 614.821107 288.455621 118.713213 39.701010 13720.566364 9305.990498 8819.156805 5411.070080 3775.122812 2224.367136 1197.297584 614.821107 288.455621 118.713213 39.701010 13720.566364 9305.990498 8819.156805 5411.070080 3775.122812 2224.367136 1197.297584 614.821107 288.455621 118.713213 39.701010 13720.566364 9305.990498 8819.156805 5411.070080 3775.122812 2224.367136 1197.297584 614.821107 288.455621 118.713213 39.701010 13720.566364 9305.990498 8819.156805 5411.070080 3775.122812 2224.367136 1197.297584 614.821107 288.455621 118.713213 39.701010 13720.566364 9305.990498 8819.156805 5411.070080 3775.122812 2224.367136 1197.297584 614.821107 288.455621 118.713213 39.701010 13720.566364 9305.990498 8819.156805 5411.070080 3775.122812 2224.367136 1197.297584 614.821107 288.455621 118.713213 39.701010 13720.566364 9305.990498 8819.156805 5411.070080 3775.122812 2224.367136 1197.297584 614.821107 288.455621 118.713213 39.701010 13720.566364 9305.990498 8819.156805 5411.070080 3775.122812 2224.367136 1197.297584 614.821107 288.455621 118.713213 39.701010 13720.566364 9305.990498 8819.156805 5411.070080 3775.122812 2224.367136 1197.297584 614.821107 288.455621 118.713213 39.701010 13720.566364 9305.990498 8819.156805 5411.070080 3775.122812 2224.367136 1197.297584 614.821107 288.455621 118.713213 39.701010 13720.566364 9305.990498 8819.156805 5411.070080 3775.122812 2224.367136 1197.297584 614.821107 288.455621 118.713213 39.701010 13720.566364 9305.990498 8819.156805 5411.070080 3775.122812 2224.367136 1197.297584 614.821107 288.455621 118.713213 39.701010 13720.566364 9305.990498 8819.156805 5411.070080 3775.122812 2224.367136 1197.297584 614.821107 288.455621 118.713213 39.701010 13720.566364 9305.990498 8819.156805 5411.070080 3775.122812 2224.367136 1197.297584 614.821107 288.455621 118.713213 39.701010 13720.566364 9305.990498 8819.156805 5411.070080 3775.122812 2224.367136 1197.297584 614.821107 288.455621 118.713213 39.701010 13720.566364 9305.990498 8819.156805 5411.070080 3775.122812 2224.367136 1197.297584 614.821107 288.455621 118.713213 39.701010 13720.566364 9305.990498 8819.156805 5411.070080 3775.122812 2224.367136 1197.297584 614.821107 288.455621 118.713213 39.701010 13720.566364 9305.990498 8819.156805 5411.070080 3775.122812 2224.367136 1197.297584 614.821107 288.455621 118.713213 39.701010 13720.566364 9305.990498 8819.156805 5411.070080 3775.122812 2224.367136 1197.297584 614.821107 288.455621 118.713213 39.701010 13720.566364 9305.990498 8819.156805 5411.070080 3775.122812 2224.367136 1197.297584 614.821107 288.455621 118.713213 39.701010 13720.566364 9305.990498 8819.156805 5411.070080 3775.122812 2224.367136 1197.297584 614.821107 288.455621 118.713213 39.701010 13720.566364 9305.990498 8819.156805 5411.070080 3775.122812 2224.367136 1197.297584 614.821107 288.455621 118.713213 39.701010 13720.566364 9305.990498 8819.156805 5411.070080 3775.122812 2224.367136 1197.297584 614.821107 288.455621 118.713213 39.701010 13720.566364 9305.990498 8819.156805 5411.070080 3775.122812 2224.367136 1197.297584 614.821107 288.455621 118.713213 39.701010 13720.566364 9305.990498 8819.156805 5411.070080 3775.122812 2224.367136 1197.297584 614.821107 288.455621 118.713213 39.701010 13720.566364 9305.990498 8819.156805 5411.070080 3775.122812 2224.367136 1197.297584 614.821107 288.455621 118.713213 39.701010 13720.566364 9305.990498 8819.156805 5411.070080 3775.122812 2224.367136 1197.297584 614.821107 288.455621 118.713213 39.701010 13720.566364 9305.990498 8819.156805 5411.070080 3775.122812 2224.367136 1197.297584 614.821107 288.455621 118.713213 39.701010 13720.566364 9305.990498 8819.156805 5411.070080 3775.122812 2224.367136 1197.297584 614.821107 288.455621 118.713213 39.701010 13720.566364 9305.990498 8819.156805 5411.070080 3775.122812 2224.367136 1197.297584 614.821107 288.455621 118.713213 39.701010 13720.566364 9305.990498 8819.156805 5411.070080 3775.122812 2224.367136 1197.297584 614.821107 288.455621 118.713213 39.701010 13720.566364 9305.990498 8819.156805 5411.070080 3775.122812 2224.367136 1197.297584 614.821107 288.455621 118.713213 39.701010 13720.566364 9305.990498 8819.156805 5411.070080 3775.122812 2224.367136 1197.297584 614.821107 288.455621 118.713213 39.701010 13720.566364 9305.990498 8819.156805 5411.070080 3775.122812 2224.367136 1197.297584 614.821107 288.455621 118.713213 39.701010 13720.566364 9305.990498 8819.156805 5411.070080 3775.122812 2224.367136 1197.297584 614.821107 288.455621 118.713213 39.701010 13720.566364 9305.990498 8819.156805 5411.070080 3775.122812 2224.367136 1197.297584 614.821107 288.455621 118.713213 39.701010 13720.566364 9305.990498 8819.156805 5411.070080 3775.122812 2224.367136 1197.297584 614.821107 288.455621 118.713213 39.701010 13720.566364 9305.990498 8819.156805 5411.070080 3775.122812 2224.367136 1197.297584 614.821107 288.455621 118.713213 39.701010 13720.566364 9305.990498 8819.156805 5411.070080 3775.122812 2224.367136 1197.297584 614.821107 288.455621 118.713213 39.701010 13720.566364 9305.990498 8819.156805 5411.070080 3775.122812 2224.367136 1197.297584 614.821107 288.455621 118.713213 39.701010 13720.566364 9305.990498 8819.156805 5411.070080 3775.122812 2224.367136 1197.297584 614.821107 288.455621 118.713213 39.701010 13720.566364 9305.990498 8819.156805 5411.070080 3775.122812 2224.367136 1197.297584 614.821107 288.455621 118.713213 39.701010 13720.566364 9305.990498 8819.156805 5411.070080 3775.122812 2224.367136 1197.297584 614.821107 288.455621 118.713213 39.701010 13720.566364 9305.990497 8819.156805 5411.070080 3775.122812 2224.367136 1197.297584 614.821107 288.455621 118.713213 39.701010 13720.566363 9305.990497 8819.156805 5411.070080 3775.122812 2224.367136 1197.297584 614.821107 288.455621 118.713213 39.701010 13720.566363 9305.990496 8819.156804 5411.070079 3775.122811 2224.367135 1197.297583 614.821106 288.455621 118.713213 39.701010 13720.566358 9305.990490 8819.156798 5411.070074 3775.122807 2224.367132 1197.297581 614.821105 288.455620 118.713212 39.701009 13720.566339 9305.990466 8819.156772 5411.070051 3775.122788 2224.367118 1197.297571 614.821098 288.455615 118.713209 39.701008 13720.566255 9305.990361 8819.156663 5411.069956 3775.122712 2224.367062 1197.297531 614.821071 288.455597 118.713198 39.701001 13720.565907 9305.989934 8819.156219 5411.069573 3775.122407 2224.366838 1197.297375 614.820964 288.455526 118.713154 39.700977 13720.564526 9305.988261 8819.154495 5411.068099 3775.121242 2224.365991 1197.296787 614.820566 288.455260 118.712988 39.700883 13720.559279 9305.981998 8819.148102 5411.062680 3775.116998 2224.362933 1197.294681 614.819142 288.454307 118.712390 39.700542 13720.540228 9305.959640 8819.125499 5411.043699 3775.102275 2224.352431 1197.287500 614.814299 288.451053 118.710334 39.699350 13720.474375 9305.883780 8819.049599 5410.980586 3775.053798 2224.318188 1197.264261 614.798660 288.440495 118.703623 39.695389 13720.258051 9305.639657 8818.808073 5410.781922 3774.902816 2224.212643 1197.193189 614.750931 288.408079 118.682874 39.682890 13719.584594 9304.896628 8818.081452 5410.191082 3774.458980 2223.906005 1196.988384 614.613388 288.313709 118.621866 39.645259 13717.609164 9302.772539 8816.028826 5408.540273 3773.232044 2223.067703 1196.432607 614.239612 288.054416 118.453022 39.538210 13712.166788 9297.091515 8810.613409 5404.238663 3770.066308 2220.924323 1195.022109 613.294060 287.395033 118.022787 39.255667 13698.075359 9282.836813 8797.214424 5393.761605 3762.465139 2215.842596 1191.708422 611.074398 285.819061 116.977265 38.539645 13664.266640 9249.837688 8766.460847 5369.950521 3745.431718 2204.653387 1184.454036 606.123818 282.179900 114.543998 36.798990 13590.161916 9181.029946 8703.085870 5321.010013 3710.318730 2181.734372 1169.672937 596.074909 274.950563 110.013128 33.245976 13437.063232 9044.891067 8580.911983 5229.844739 3644.967417 2138.813822 1142.712530 578.846651 262.521385 101.687542 25.776629 13150.493366 8796.448118 8350.656743 5064.676227 3532.463260 2066.067031 1097.441272 547.786641 233.715234 79.830417 6.881547 12728.136990 8496.168994 8031.283080 4806.063857 3357.993241 1957.441381 1025.703144 492.442968 190.753182 70.983644 -12.295293 11969.730696 8028.894435 7661.671257 4467.720253 3098.814953 1802.891172 931.201325 446.252933 195.176730 83.713462 -69.615866 10808.639925 6619.631164 6757.602605 3937.986266 2676.979764 1551.008498 791.701050 360.482407 31.344149 -261.313262 -343.838738 12675.501895 7888.610934 6817.239447 4107.612849 2608.978885 1475.072298 752.478247 319.072177 21.924518 94.703058 357.111242 97.971894 91.462575 89.084434 87.950229 86.906318 84.924053 80.514655 70.947191 51.669234 18.766687 -51.345634 -158.065683 42.297312 341.394245 37.929654 29.806276 26.722544 25.283622 24.098235 22.055278 17.805567 9.193276 -7.413479 -30.396326 -63.050446 -176.610576 -352.287863 -399.963757 40.408805 30.473010 26.700279 25.027024 23.806561 21.903292 18.094664 10.804273 -2.986931 -25.954921 -47.549942 -41.511609 1.114034 -103.606686 28.370858 17.106602 12.838263 11.024673 9.877368 8.335302 5.398705 0.021522 -8.814576 -23.456603 -48.006983 -71.686208 -45.237480 -58.989000 24.827861 12.679802 8.066694 6.170857 5.138592 4.000309 2.013077 -1.599793 -7.217000 -14.065072 -22.383733 -33.286023 -28.856849 -30.862956 23.021345 10.262499 5.407296 3.468121 2.547714 1.745110 0.529337 -1.571059 -4.983544 -9.404087 -13.462572 -16.113937 -12.521306 -13.264593 22.172325 9.024617 4.018052 2.057430 1.223620 0.660355 -0.049229 -1.149749 -2.820942 -5.075609 -7.436049 -8.901671 -7.120211 -6.582848 21.924870 8.545119 3.447662 1.475183 0.697780 0.287207 -0.118136 -0.685158 -1.473985 -2.443255 -3.424539 -4.045460 -3.332686 -2.920956 21.867431 8.356076 3.206657 1.227498 0.482333 0.157908 -0.076126 -0.354742 -0.723325 -1.153171 -1.550888 -1.762305 -1.442913 -1.226345 21.867515 8.286588 3.110517 1.128812 0.401131 0.120698 -0.028038 -0.162685 -0.323333 -0.505551 -0.670489 -0.750560 -0.616501 -0.507455 21.862889 8.249875 3.064744 1.086663 0.371032 0.113248 0.004287 -0.066169 -0.135064 -0.207471 -0.270969 -0.300218 -0.247603 -0.199692 21.818922 8.204150 3.025205 1.056379 0.353718 0.110606 0.020988 -0.021612 -0.052896 -0.081615 -0.105253 -0.115260 -0.095062 -0.075622 21.389215 7.912130 2.896245 1.001617 0.329781 0.104003 0.026863 -0.002834 -0.018671 -0.030444 -0.039283 -0.042757 -0.035293 -0.027780 20.205764 6.936702 2.367494 0.798932 0.259139 0.081478 0.023225 0.003105 -0.005324 -0.010172 -0.013333 -0.014475 -0.011849 -0.009445 20.940419 6.354304 1.971276 0.629090 0.198205 0.061526 0.018257 0.004311 -0.000574 -0.002666 -0.003730 -0.004067 -0.003271 -0.003197
</DataArray>
<DataArray type="Float64" Name="Velocity" NumberOfComponents="3" format="ascii">