<VTKFile type="PolyData">
<PolyData>
<Piece NumberOfPoints="1945" NumberOfVerts="1945" NumberOfLines="0" NumberOfStrips="0" NumberOfPolys="0">
<PointData>
<DataArray type="Float64" Name="Pressure" format="ascii">
 17965.251555 16597.974781 18706.282736 15888.661209 19738.381162 16706.003120 18357.481937 16586.069324 19315.243153 18057.044835 18427.538651 18259.064281 18332.061005 17165.863291 21160.094377 19961.200308 19213.836756 18762.066377 18851.071954 18994.676526 19372.953129 20025.549327 18279.214768 19751.673524 19057.419051 19735.060549 23839.135691 22987.212068 22512.628920 20299.302350 24776.742770 22901.735710 22970.420845 21798.599203 23204.062855 22807.955698 21347.004383 20999.610060 22258.895809 22434.616477 21207.498345 21432.203888 21578.849169 21343.168587 21307.478249 21848.082849 22410.698532 24038.308508 21766.117682 23021.804094 21306.970781 22673.452332 19906.400390 21455.204355 20224.213259 22402.662932 19828.122265 20317.078363 21207.933593 21465.436540 21998.891425 21638.349336 22391.047015 22802.477308 20514.672912 21620.741419 20435.074583 21015.667276 22693.686200 22766.520747 22240.008169 21439.379310 21871.524205 21914.342009 21998.420818 22248.857109 20148.087875 19935.760981 21692.479460 21678.803452 20571.680051 21393.023012 17435.880468 17975.155912 17678.036388 17905.293704 21120.217911 20724.490690 22008.107714 20110.612556 24443.376606 24112.527153 17629.000122 17789.588805 20077.898382 21773.243565 19533.143158 18377.606338 20938.046017 21757.756616 18020.741927 19750.092430 16005.952075 17547.707076 20728.880659 21940.295988 20895.342526 20216.678311 24467.811271 23318.772754 22767.834673 23102.753532 19510.000355 19722.014846 19688.172737 19113.635572 22687.590671 22173.244134 21334.656504 19409.622991 22616.648813 24253.223558 18252.022007 17979.067433 23350.216888 25641.470445 17374.835101 19560.544591 19698.157965 22357.981732 22581.778292 21491.216688 24959.555785 25862.195630 17719.297099 19727.172899 21926.082930 23052.259013 21894.906492 22742.214668 19217.308505 21339.278696 22570.581621 20004.475749 29967.230354 29221.843094 20294.210408 21603.298992 22377.003771 23829.498745 22438.198884 22403.326591 29968.050562 31184.310096 21246.799534 21406.405949 27891.221639 28387.126525 21149.452884 20513.295093 28258.487377 26546.005358 28201.943314 24211.380333 31474.674811 32438.397045 22892.451215 23833.163434 30488.320855 29046.034963 29571.203599 26496.214888 31431.828103 29372.122049 28394.320396 27875.320493 29735.135478 24109.281649 31592.224688 27086.821000 25080.541169 21944.128850 32207.471698 27275.937753 30296.127105 29982.375033 29057.601592 25898.378727 31960.745363 29263.047153 27033.771096 24406.306849 31120.241394 27334.959826 31969.769661 28012.157904 30500.764942 26425.512765 30101.038741 26384.511550 32077.174680 27977.627460 32671.147761 26943.999661 34733.204578 27359.969596 29834.854434 22207.315303 29258.458396 25345.303328 14845.952996 13681.315412 12426.298189 10789.432982 9555.454640 8000.974169 6147.547653 4426.651843 2195.404478 2966.460755 1662.740990 -3957.443857 -5585.605114 -5147.109475 -4187.923156 -3752.570167 -7404.331567 -9691.821073 -9197.191829 -8580.149718 -8052.314747 -7572.960834 -7125.292067 -6706.716826 -6317.170413 -5955.025777 -5616.437764 -5296.140998 -4988.630085 -4689.154361 -4394.309722 -4102.227885 -3812.465352 -3525.717394 -3243.464348 -2967.625247 -2700.262096 -2443.353233 -2198.637462 -1967.521036 -1751.035258 -1549.831635 -1364.202774 -1194.119248 -1039.275045 -899.136452 -772.992036 -660.009046 -559.342411 -470.575989 -396.435455 12652.058899 12740.408276 12522.888945 10127.129054 8702.629728 6807.063578 6538.783262 5502.127248 -1546.823532 3310.026637 3508.261848 -6370.027289 -6338.952924 -4871.918914 -3918.998877 -3960.111823 -8908.698095 -10509.810854 -9112.074526 -8563.632812 -8057.200792 -7579.622273 -7131.857771 -6713.173791 -6323.270431 -5960.381391 -5620.763401 -5299.357225 -4990.852760 -4690.627947 -4395.330463 -4103.081597 -3813.388139 -3526.877947 -3244.962384 -2969.499896 -2702.505034 -2445.922828 -2201.471693 -1970.548074 -1754.181406 -1553.026812 -1367.383932 -1197.232192 -1042.275027 -901.987420 -775.661840 -662.442549 -561.299663 -470.652894 -385.877570 18645.855855 23205.017447 21913.457395 20612.731540 23091.683118 20962.559879 20501.012264 18150.601137 17065.076940 12046.810992 10084.878664 10914.999771 8059.354215 7277.612705 10410.956137 -3143.951064 -5789.392407 823.651958 2445.827854 2320.147066 5923.542381 5832.668128 -5016.560809 -3551.930329 -2586.978300 -2760.450996 -3022.555253 -3198.344115 -3242.318090 -3149.142073 -2931.972509 -2615.721212 -2232.648128 -1817.887065 -1404.989685 -1022.095743 -689.341550 -417.862326 -210.352527 -62.788161 33.276085 88.406868 113.396998 117.966623 110.065922 95.667539 78.891287 62.309174 47.308398 34.404672 23.304999 23526.128123 24579.214259 25413.602425 24758.619247 25895.452239 24862.880394 23107.277707 21264.601136 20002.216797 18295.066889 16969.750210 16553.113091 15905.390171 14820.380950 13295.192591 8638.719867 5284.099724 3375.817046 2664.959745 2374.560081 2484.496378 2421.637420 1185.998293 -648.767828 -1915.957983 -2578.777478 -2958.682430 -3161.769221 -3212.791655 -3123.702769 -2911.522521 -2601.519005 -2225.336014 -1817.265096 -1410.088002 -1031.406569 -701.126411 -430.454461 -222.387805 -73.328614 24.726013 81.964307 108.906884 115.115362 108.478785 94.978710 78.785739 62.543057 47.726526 35.034779 24.962080 -345.213064 -321.903740 -328.522006 -306.797052 -285.585207 -273.896710 -235.044385 -233.778426 -195.521835 -195.801505 -162.421682 -162.898720 -134.461663 -134.914380 -110.888894 -111.286763 -91.094670 -91.438031 -74.545562 -74.839591 -60.769825 -61.020177 -49.352055 -49.564110 -39.928832 -40.107550 -32.184324 -32.334209 -25.845808 -25.970911 -20.679240 -20.783170 -16.484962 -16.570904 -13.093620 -13.164366 -10.362366 -10.420344 -8.171352 -8.218658 -6.420558 -6.458988 -5.026931 -5.058019 -3.921856 -3.946897 -3.048918 -3.069005 -2.361955 -2.378002 -1.823374 -1.836141 -1.402698 -1.412814 -1.075332 -1.083316 -0.821518 -0.827793 -0.625450 -0.630363 -0.474542 -0.478375 -0.358814 -0.361791 -0.270385 -0.272689 -0.203057 -0.204833 -0.151978 -0.153342 -0.113364 -0.114408 -0.084277 -0.085073 -0.062444 -0.063048 -0.046112 -0.046569 -0.033939 -0.034284 -0.024897 -0.025155 -0.018203 -0.018397 -0.013266 -0.013410 -0.009636 -0.009743 -0.006976 -0.007055 -0.005034 -0.005093 -0.003621 -0.003664 -0.002596 -0.002628 -0.001856 -0.001879 -0.001322 -0.001339 -0.000939 -0.000951 -0.000665 -0.000673 -0.000469 -0.000475 -0.000330 -0.000334 -0.000231 -0.000235 -0.000162 -0.000164 -0.000113 -0.000114 -0.000078 -0.000079 -0.000054 -0.000055 -0.000038 -0.000038 -0.000026 -0.000026 -0.000018 -0.000018 -0.000013 -0.000013 -0.000009 -0.000009 -0.000007 -0.000007 -0.000005 -0.000006 -0.000005 -0.000005 -0.000005 -0.000005 -0.000006 -0.000006 -0.000008 -0.000008 -0.000010 -0.000010 -0.000013 -0.000014 -0.000017 -0.000017 -0.000021 -0.000021 -0.000025 -0.000025 -0.000028 -0.000027 -0.000026 -0.000025 -0.000015 -0.000013 0.000013 0.000015 0.000070 0.000074 0.000177 0.000184 0.000367 0.000378 0.000690 0.000707 0.001224 0.001251 0.002088 0.002131 0.003468 0.003535 0.005650 0.005755 0.009084 0.009248 0.014492 0.014752 0.023052 0.023469 0.036723 0.037405 0.058808 0.059940 0.094909 0.096803 0.154511 0.157693 0.253526 0.258851 0.418200 0.427023 0.690866 0.705237 1.137910 1.160743 1.860136 1.894963 3.005628 3.053898 4.788388 4.831576 7.537628 7.432253 12.025314 10.754262 16.464256 13.906059 18.469907 15.669956 12693.215351 17288.460592 15366.138748 16248.975623 16352.994184 11350.419230 15485.615609 15138.336539 14454.050793 11471.848363 13404.305022 15933.836928 16148.251649 13080.031118 15937.434862 12869.326320 8470.778962 13384.912079 12576.491967 10248.787705 15773.939627 10523.175203 18741.943245 18151.302919 17636.595716 15717.050601 14615.776582 17730.003390 8721.347356 14937.965275 12707.118674 2564.484568 16784.400950 19804.800600 18005.862555 18222.427531 12275.028388 17702.744812 16821.269106 13743.038384 7320.870821 17154.880877 7918.421906 16206.275716 15117.325979 8032.737874 17674.491158 21835.328410 21299.828049 16158.426601 16235.848822 15625.736289 7618.894534 13184.711680 13919.471986 16704.254339 19684.009968 19145.077776 20162.830188 18787.999634 15310.436760 20454.752545 18120.453714 13256.917797 14029.706899 18074.159167 17957.430722 18570.368727 21093.978258 20048.211518 19114.293658 17127.986533 17641.479287 18209.527750 15168.783134 14898.945519 8630.024768 20607.485461 19337.740490 19647.464552 18532.192964 22164.901990 16392.595990 13936.903471 17059.363961 17672.962679 12428.426483 10931.642054 22204.682878 20962.624126 19267.396203 20827.392428 20671.736225 15466.292745 12894.770854 18465.950101 15920.371931 11660.883886 17259.372517 22604.539655 20444.469074 17206.111242 18701.299067 10946.267952 19616.946913 15428.352098 16623.759844 16109.339646 5090.170022 14658.959443 21588.482940 19909.053717 20245.271606 7856.841319 20055.748624 12661.982086 18518.554450 8975.239641 10565.146449 7533.411524 4915.543210 20551.138470 20668.616314 15024.304411 19330.977147 8167.531405 15929.120841 9848.349338 12951.221781 15756.591558 14730.590831 11095.604830 22008.257330 17601.948708 18585.347946 16484.500146 14636.140684 15983.068408 19025.301262 12562.313268 17302.918377 16703.427354 12489.346292 19553.840708 19250.211864 19588.880263 20429.688900 18787.286908 16752.883442 15911.645390 13202.674052 16177.596501 7746.824757 9453.156813 21403.947840 19008.408831 22480.316490 19335.350800 15538.353035 19785.119324 13758.805922 13289.225927 6296.849219 9383.300826 7070.934013 20911.566315 20140.674291 19343.482182 17338.829694 12857.952373 11339.789976 10264.658619 7376.204892 6617.154738 4835.625558 2278.700561 19282.079754 18067.020555 17361.939350 18992.560062 15884.370520 18092.810514 12175.871182 15100.247524 7042.292104 1019.780581 2050.449687 20708.496593 17333.806367 19179.302097 13283.302394 9963.968345 6273.850754 4862.997402 5237.087343 3026.540421 1382.776445 2338.741637 19217.543260 17268.739869 17109.251672 17154.354872 12520.459835 6245.248830 8951.314558 8435.615566 6453.062938 4527.590322 2152.245951 21396.156698 18466.622588 18887.660671 13375.016561 7772.344774 6949.047621 8611.977589 2581.784528 3241.892858 1819.788263 2672.247448 20474.669778 18183.988540 18213.103737 16737.406145 11346.570893 5661.125053 3916.882761 3728.889964 3320.242901 1689.209152 921.036936 18487.696862 15410.023860 16093.031770 14030.802850 12522.517667 4007.221998 4789.301390 1455.711013 3949.967204 1413.806527 3369.990287 18632.685035 18914.404958 16692.971331 11433.590742 11606.044691 10065.367670 3560.311857 4736.043262 3849.566969 1879.432957 3606.986361 17636.162891 15783.033984 14592.051457 13333.278132 5551.128685 9178.831388 10578.490677 9923.923146 6312.038497 3565.714411 1339.695875 16953.721928 16976.931259 14994.797250 10530.268537 10071.484640 12309.205622 7217.781044 2381.182527 7587.506148 4902.946959 3219.722432 19387.989995 15043.620702 15306.015579 16165.970121 13990.663580 8755.216867 7463.172927 5868.960138 6648.817436 6857.112506 1808.306071 17256.904151 14806.609688 16006.952364 11700.494802 15239.035241 6017.280076 10337.760977 2642.891918 3958.257179 2472.408642 2578.762795 17958.750290 12977.570294 10782.980885 13264.545285 12241.987876 13143.164919 9150.183356 10241.145140 3502.237117 4157.120593 6440.667278 18316.837008 18683.246292 13343.973457 14290.618016 16436.201720 10295.282434 4690.528399 5706.736591 6437.668114 5421.661046 1466.648226 20183.299515 17925.928673 14554.706570 10636.262483 12029.312418 9212.184550 9691.615997 3742.549661 8836.200776 3953.445628 2621.968933 17409.599613 16544.788454 17333.653059 13826.505324 12081.944220 6443.330673 7376.423088 8402.649487 6421.878271 2485.213613 3291.534244 18962.168800 19351.218786 15187.678811 15234.757726 13715.481595 11509.621154 11038.473109 7231.718811 8982.478075 6871.904968 673.307019 17888.111216 8406.245252 17553.156695 15824.445776 15294.479971 12595.698633 6610.263130 9749.443235 3979.905965 5451.646160 1213.797562 21032.098029 17962.983030 17060.495493 15791.191796 13221.550953 11136.094367 10099.952293 8226.836962 5019.568356 2230.731635 2667.988426 18053.267581 17561.994814 16876.141274 13617.467310 12014.873584 13126.175646 9532.966012 5551.433614 4300.733948 2990.917086 2982.718306 19397.927758 19369.328828 17665.446529 15338.256834 14506.554546 13507.386128 9758.406425 12338.131381 2908.089949 3805.911366 3495.055008 19506.441776 17992.469956 13739.423357 15500.953655 14634.957462 10852.807855 12367.699434 9004.671774 7463.815526 6424.994397 10702.507552 17469.037705 18966.068665 16515.167147 16557.645935 15038.383988 9753.681867 11120.857677 9899.469971 11775.138868 4329.932078 4095.581382 19847.832219 18706.711462 17786.686777 11828.550896 14064.025440 9176.925967 7385.149351 4211.355674 7493.561930 4958.149675 445.816782 18849.136362 16532.380535 17496.471213 11422.247692 6150.460411 10051.602957 5323.360563 4315.486371 3435.520246 6471.571566 22252.650856 21812.055524 18541.155738 18013.474491 15667.516108 14811.255755 7800.436212 7535.461454 5144.901378 9180.683560 2668.407500 2451.303882 19394.322430 17363.049276 17837.631114 14838.313275 11999.699606 10299.059915 14589.698628 5613.142817 3746.794386 2903.734475 3251.652319 19236.250740 18844.073959 15640.385590 14864.349676 13078.457262 10198.775765 8316.246495 8554.316171 4765.799581 3344.712854 5870.441171 19572.800744 17208.203208 17262.191266 18544.640883 13022.908010 11399.020718 7143.180798 5341.840148 3894.875015 4370.084317 51354.735310 19618.113175 19668.366271 16522.555946 8962.252009 11540.908407 11846.869800 5917.953201 11017.234988 4650.056225 7489.857075 879.078830 18857.368548 17359.476247 18329.887562 5991.793052 6292.259214 8867.879867 6646.939017 6591.634545 2786.631264 6279.785349 181523.958811 19784.909681 17361.123491 14074.031974 14587.389959 7815.864807 10291.751485 10511.614673 4533.094042 6271.408388 11544.353442 2675.028323 22359.676297 19226.653772 14302.509586 16776.676806 12533.802094 8823.083262 5096.942678 13927.107182 6905.428271 2119.368044 -665.756460 20057.677045 19664.879506 19104.629394 12373.845462 9811.453662 12413.284457 13213.235016 5357.424804 10277.014736 4586.206739 5558.116290 17958.070493 17850.233753 17755.907286 15861.127906 14407.207093 12476.494157 12065.705895 8534.039572 9028.121143 5565.405342 3062.479907 19703.907337 17592.307428 20928.749446 15107.413757 14397.616125 13857.894526 9868.606845 11929.653341 8275.956593 7084.123998 3771.925002 21672.045019 19872.111500 16768.636129 15312.817754 15131.257292 10888.219532 11717.392432 9002.759059 7892.426872 4461.261002 2451.030184 19975.864308 19904.314102 20404.937826 16761.645332 16772.708984 13651.673098 10814.166883 8764.450095 10751.676279 9495.279309 4788.422067 19934.554733 19850.410064 17740.377244 16893.911399 15881.988367 14043.606884 9784.789032 8848.034709 6839.554074 6720.824472 1466.196214 23415.231102 19686.525298 19647.269603 16789.215831 11226.605123 7504.627741 7058.039474 9243.414269 1076.550736 2912.713247 12225.669178 20102.006915 20898.207225 18769.547200 16643.093505 13468.199271 10382.248225 9144.859397 5707.743333 5620.875347 5060.833076 1994.684052 22243.004051 21269.894555 17342.356108 16606.615967 12415.625559 9648.295990 11082.080204 8417.038233 6140.587570 3920.716209 7066.910000 20848.386929 19948.654372 15394.307187 13836.176006 15060.701788 12655.898865 11093.379709 10972.429842 9950.367732 5979.363267 4400.433882 21509.849967 18168.429456 17233.719819 15160.297642 13330.688569 12524.873664 12349.035782 14567.108602 9602.022715 3422.507732 1736.258175 20234.893618 18448.410238 20843.354269 19470.910818 16430.863905 16037.087805 14415.098461 10416.471083 5636.724232 5084.103149 8367.536129 20782.606353 19505.720745 18287.518572 19595.233285 15897.499064 15440.645581 8363.872807 5837.553442 4940.583516 4856.488357 -19528.800979 22117.695529 19717.891495 19266.246884 14303.332554 15946.852628 15038.733059 11786.614212 5534.308754 9688.446960 6088.555023 1918.640439 21745.475324 22693.378757 18135.872869 17163.458735 15012.825515 13109.554297 16438.230309 7361.168577 2958.605440 3163.220982 2041.317614 24386.998070 20248.094472 20595.322871 15519.892587 16465.512435 15295.027803 10782.325171 11731.758084 2861.959935 4293.009058 3222.677890 22546.520884 20418.632659 21103.518113 19621.931451 16440.048012 18327.731192 11948.121876 10982.276380 7763.804791 6088.379920 9022.024695 23958.345890 22973.047150 20188.736227 19446.332276 15171.315443 14503.754962 10946.372249 10064.140036 6273.967873 4757.864521 5951.359534 24468.536652 21409.474183 20881.251278 19664.184859 13650.101033 15287.212617 11954.202273 6635.947354 7530.416969 2608.484843 11593.981471 20943.553293 21204.025584 21705.615224 19381.258843 13048.292656 11963.416645 7934.047129 9544.306827 5169.232430 4543.186275 5291.448818 21316.525813 23059.031082 19256.926959 18285.709295 17133.625069 9421.172953 13137.871653 7627.967114 9671.832842 7783.836420 56159.783769 24512.411229 21889.488290 21670.967001 22196.500060 16668.993626 13025.068815 13625.945425 11206.649269 6585.470013 6127.793598 18351.001558 23453.452598 21613.776198 21295.383338 19213.300491 18380.566336 15058.109279 6685.694297 11841.451420 7990.911050 8632.421971 -12650.182693 24262.109002 22288.042249 19286.639722 22852.286864 15615.101163 17823.150370 13724.289515 9758.860021 6626.174222 10599.819295 11872.916556 25083.826226 23568.566981 24567.303988 17934.424311 15873.215053 18806.659976 14949.365406 7585.848108 7588.992171 14039.423864 1487.464755 24835.956702 21789.374795 21325.688420 21341.962014 16992.721974 16598.714471 12240.149639 8479.367809 7197.888844 10261.599982 29934.571403 27355.438365 23623.383220 20655.529833 17162.632807 21401.224381 15027.202068 15277.661115 9708.158717 15146.322122 17411.391289 7005.509113 26743.693046 23918.452369 19410.206376 19859.408120 17607.223426 10352.671663 14682.196006 8114.521494 7765.144738 12770.655271 4414.177089 27316.469926 25082.665339 24138.411194 25581.394641 19471.722852 15285.215181 13226.587763 10661.505323 10800.669807 26264.295670 10230.198525 26540.229582 27508.601467 24024.221630 21421.440387 20432.404261 16110.003392 12957.896288 11739.682115 10610.908447 12811.180845 10565.207591 27895.919034 22493.245657 24782.953085 23513.116516 18236.551020 21169.100514 17249.223864 13772.102522 10237.700667 21595.458329 13468.023667 23267.097029 25010.814561 23396.569541 21602.978923 18646.970681 16501.141556 13862.735351 10213.414156 12984.963735 13300.778128 27267.492524 29251.004894 22800.643192 23488.574621 23387.666669 21495.233070 16648.948198 11588.893530 14284.851472 14373.748675 23037.083373 19281.165113 24150.293483 22463.388966 22265.106982 22448.107840 19717.627280 18531.127834 16351.197185 12486.448411 10796.222602 17407.073019 11687.977939 24806.465439 22691.280130 20308.261222 21961.582332 21970.809877 19527.130185 16210.723530 12326.578479 13995.145766 11470.070852 16501.205805 24959.746606 24526.636137 21509.732040 20829.860123 18896.587116 18113.268042 13738.917330 12196.335476 10544.647531 15013.295544 13351.609264 25008.203522 23399.538028 23517.753867 18629.629636 23895.402581 14441.016322 16343.459596 14958.689669 15820.955378 16470.836503 15565.928607 25914.894073 26893.480737 21690.240503 23854.707859 21180.020172 16299.283837 13960.587701 14750.022876 21326.776150 13352.578583 13529.482111 25504.818818 21224.420949 21118.756675 22657.937043 18825.000909 15710.501608 15808.410301 14182.825629 13395.491991 15058.118406 5220.065026 24532.458632 25094.681719 21432.977698 21508.176265 17591.945971 22672.551057 14764.532551 16324.666534 14347.160131 22579.634613 4247.915658 28454.464222 24271.396168 21557.411638 19241.789817 17491.217529 20990.801622 17326.899250 14590.155196 12769.182573 17498.282448 11226.148605 26435.241484 26049.078203 23356.977314 20253.254246 19575.687530 18739.634896 15281.653804 11925.909294 16158.040165 17574.053185 -562.624984 28169.917241 22779.655629 23826.497855 21823.928984 21766.284824 19418.580247 16141.649070 15956.492236 16910.769817 12379.939370 2386.511534 26046.040932 24794.167034 21556.422895 24739.488861 19288.432570 18320.576320 15757.673335 17245.513224 18802.966242 21389.007169 20686.693428 25073.215682 22481.954608 23736.675498 23991.220996 20958.395127 18116.807805 16811.267036 17175.685356 15816.055747 17819.037798 19545.552014 25986.022108 26267.337059 20101.254724 22607.254708 19787.066597 21300.134916 19221.306052 18678.835207 12995.391381 12313.237080 4247.915658 26919.954862 23116.571771 26191.221214 17200.366926 22104.610244 19849.820677 18051.909178 16145.023563 12593.725050 15635.442449 17577.243026 25318.028558 24596.203720 24502.962759 21391.695395 20019.271538 20621.855271 16414.662977 14548.667168 15310.122341 14149.048556 10046.173524 27233.430227 24208.401039 21019.846117 20085.959427 19861.138947 17353.628106 17032.789382 16535.780156 14387.761179 18655.396948 61056.818919 23657.419727 27470.264185 25391.628356 24465.211632 20433.832046 15987.735417 17431.389252 15985.128127 18782.411252 20775.827826 14881.392691 27212.093303 19637.779659 22481.048813 23720.377866 22976.094940 17311.021558 21404.095110 16748.251059 12848.469265 15813.986724 12899.226835 23365.270017 23989.009992 26526.726991 22829.196214 20303.065295 22388.802376 21147.330376 15902.176547 16396.993156 13760.760336 17253.351040 23590.980806 25922.233227 21313.258290 21983.494564 22118.564478 18100.452003 22636.724317 22963.207020 16161.499571 15059.793868 26642.500465 10836.118488 15041.046216 15380.552515 12887.431362 9602.003644 14372.281576 11616.070914 11707.946005 12084.775564 10145.975647 6828.086922 6397.120152 942.964423 -4306.386519 14787.068140 8441.135880 15311.662749 12214.830407 6142.328730 14340.867635 8871.961068 5124.024599 12808.576693 5930.905312 3337.374671 7395.565446 5917.892131 5034.223779 3763.566840 9687.742374 9101.916081 5117.604425 8298.435511 1755.610267 9623.089878 9134.138435 11501.404762 7572.131886 4220.211780 5167.014181 5187.504837 3224.357533 11525.436575 8404.799064 12087.992728 12244.324261 8765.893020 9373.851807 12271.733467 9697.512489 5558.866234 9089.113453 10549.103019 5965.744096 1708.686285 1144.246387 11902.637734 18618.969319 9707.548578 7699.501553 15996.521297 10236.183427 11237.996895 10846.772446 7092.161663 3739.512005 7002.345538 3922.647287 2688.534617 1186.319396 10096.241510 14048.079370 8330.464511 19097.991805 13977.754552 14322.074059 13627.491243 6428.392901 5283.622822 6886.421452 6645.066808 3351.174598 7287.340253 2085.868588 20494.577720 2633.458985 11002.588640 9015.176203 1861.658300 11070.693973 10468.182321 10620.545150 7862.953652 5250.940215 5639.254356 3931.384489 4270.443727 937.413920 8193.336429 10395.404644 10336.630207 13824.831867 9182.725839 12928.599256 5924.152351 6104.372256 2458.531810 4888.642657 5249.422525 5477.239576 2380.049889 249.708661 12926.147270 13994.498910 9684.646285 6781.904032 11282.822040 4380.156095 8005.905616 6496.605577 1653.074212 8154.365369 5668.840704 5672.273220 4139.302994 2122.708203 7038.336137 7724.009541 12916.984817 7210.730714 12205.165864 4648.246335 11718.432461 6440.158573 11437.873923 2803.103915 6584.670917 3608.129571 1700.995862 3529.616818 6541.977138 7728.931416 15927.436496 10698.783402 5850.638436 6638.233271 4991.667695 11556.653550 8284.991167 8432.668265 11205.734117 5659.962448 4691.663733 3820.164741 11709.934114 3189.168909 7642.268260 15524.890823 3629.904856 10141.762841 4129.689614 11803.513163 4648.116906 8011.574513 7696.463130 14591.641030 2874.222493 5030.416022 5369.436233 2801.134042 3066.038460 7125.072959 3604.613372 2444.468581 6959.270077 15022.270365 13820.255961 8926.598204 1891.895340 3696.139572 5005.293179 1251.157516 2581.882030 3592.733458 4503.455243 3023.249161 4466.163223 2530.512653 5264.422375 7304.022697 3764.965290 10335.515204 7082.386880 4312.792383 4336.232104 4010.940921 1928.390493 647.759600 2105.483891 2210.232311 2274.428786 1054.535893 5937.276188 2420.415474 2405.353564 2717.049065 3503.465358 2648.341531 2967.644473 2063.970897
</DataArray>
<DataArray type="Float64" Name="Velocity" NumberOfComponents="3" format="ascii">