<VTKFile type="PolyData">
<PolyData>
<Piece NumberOfPoints="1945" NumberOfVerts="1945" NumberOfLines="0" NumberOfStrips="0" NumberOfPolys="0">
<PointData>
<DataArray type="Float64" Name="Pressure" format="ascii">
 38880.470339 43415.311616 55545.832718 57729.490257 58078.964914 59526.899231 45873.533064 48766.166888 43975.433260 48735.520200 44577.557872 51901.064512 44419.337073 49848.236724 44513.156538 50050.848403 45617.828036 56426.839694 42368.185602 51562.158217 44807.232996 51455.133233 45638.854907 52207.749956 43858.662137 49457.733385 47350.584233 52117.708131 41432.162681 44231.431272 39900.547480 40857.197482 39940.766102 40958.791407 37312.909556 36324.592541 37558.744688 35334.694504 35766.398095 32165.930921 36011.345289 32852.634147 35422.594094 33634.057117 34568.999646 33579.783443 33097.079060 31970.960036 31394.174799 29499.057791 29863.533012 26823.057813 28741.740529 24599.685197 28111.551389 23569.810851 27727.066637 23654.908302 27150.990042 23856.467625 26315.648537 23404.173197 25377.827447 23091.974867 24418.706577 22989.853625 23327.490340 22661.942141 22039.017616 21583.951989 20689.959720 19978.104802 19407.753942 18251.408810 18250.186047 16568.213219 17253.654902 14795.367079 16400.995047 13035.983155 15699.195358 11288.564740 15135.286455 9623.029894 14706.385620 8118.279157 14410.234226 6841.199035 14233.461862 5853.778886 14151.301187 5150.484523 14138.014786 4676.390534 14172.357340 4359.262909 14248.562348 4146.790486 14367.044732 4012.043142 14529.422225 3945.508713 14736.598468 3959.391319 14987.814459 4067.302170 15284.027212 4284.533617 15621.293716 4618.475388 15986.245155 5061.817265 16357.976016 5589.767016 16713.828362 6169.499619 17035.728491 6771.492063 17310.897092 7364.884515 17531.167381 7920.458037 17692.569646 8415.574618 17796.994541 8839.749739 17850.561787 9184.226115 17864.444824 9463.671109 17851.763896 9511.691179 17805.199085 9684.328108 17761.685994 9823.738202 17726.927738 9946.873944 17707.403771 10067.554564 17708.911874 10195.114741 17734.441429 10333.489919 17785.492577 10488.826308 17861.922709 10654.464128 17959.181676 10983.344067 18090.626198 11166.869400 18229.861723 11351.519725 18380.089467 11545.125100 18545.423436 11768.544570 18720.743028 12014.948825 18915.067804 12314.530111 19136.586672 12664.031369 19398.748610 13084.497047 19707.866230 13565.481328 20064.962232 14071.079239 20470.935871 14612.148747 20922.520154 15111.177497 21404.747744 15649.794452 21912.984619 16044.813676 22436.740014 16552.712307 22946.616708 16820.758458 23463.150828 17147.674410 23978.467698 17611.577076 24430.262065 17600.469739 24895.429036 18113.245525 25636.151862 18284.696238 26957.665535 20237.000885 27292.781177 19242.706605 29160.788077 20218.941916 30095.559997 24285.236040 27683.353415 21113.396615 36378.748157 30535.593109 40282.589227 39497.429768 34061.719300 28733.250829 41166.896032 36343.374275 40535.344760 38247.597212 34122.768346 33779.522880 30587.987492 25397.942103 21793.147241 18760.900293 16070.685867 13320.244253 11188.785007 9111.620529 7301.626227 6069.734148 4433.328843 3032.921585 2117.453221 6055.475508 1870.892563 -4611.331298 -880.678617 -2186.465755 -7908.679283 -6913.676472 -5347.814191 -4330.749548 -3556.296959 -2908.206647 -2350.501139 -1869.207315 -1458.060819 -1113.105491 -830.353450 -604.719995 -429.780689 -298.102809 -201.871349 -133.544916 -86.364248 -54.642799 -33.851075 -20.549378 -12.233428 -7.147324 -4.100999 -2.312424 -1.282051 -0.698966 -0.374195 -0.195407 -0.098788 43914.409087 43915.916794 42053.239499 45928.364298 42649.252998 34814.312335 31893.039814 28412.553590 24133.551650 20022.619222 17255.444621 13739.048921 9802.198520 7759.605367 4017.615086 2016.520273 -2412.785514 9618.365085 -2719.989001 -15426.159356 256.348452 -2496.493549 -10260.992567 -7356.770840 -5267.764350 -4353.968981 -3581.751383 -2928.627427 -2367.471264 -1884.275364 -1471.939579 -1125.971984 -842.106279 -615.159680 -438.735095 -305.497788 -207.749584 -138.047325 -89.693226 -57.023689 -35.501649 -21.660759 -12.961580 -7.612312 -4.390850 -2.489026 -1.387333 -0.760391 -0.409100 -0.213612 -0.100567 30990.201082 23067.367395 19161.531734 16136.282271 13549.332067 9497.324944 8742.902921 5986.978362 -434.423159 2876.106024 10128.981309 4274.101376 1276.862136 312.822104 -52.852769 -137.277341 -117.080573 -74.819730 -40.563740 -19.948741 -9.909223 -5.959630 -4.734446 -4.344822 -3.986513 -3.457353 -2.807164 -2.143684 -1.550984 -1.070548 -0.709057 -0.452787 -0.279849 -0.167937 -0.098107 -0.055917 -0.031151 -0.016990 -0.009085 -0.004768 -0.002459 -0.001247 -0.000623 -0.000306 -0.000148 -0.000071 -0.000033 -0.000016 -0.000007 -0.000003 -0.000001 35938.446041 31934.171848 27323.237033 23221.727455 19858.107123 16060.678027 13187.451697 9550.739012 5095.631922 4809.209195 5128.702811 3131.301797 1398.917884 427.906996 13.642951 -107.749593 -107.798318 -74.262875 -42.610816 -22.022232 -11.278902 -6.659246 -5.003961 -4.402726 -3.970860 -3.435094 -2.800622 -2.153516 -1.570599 -1.093152 -0.730091 -0.470064 -0.292871 -0.177135 -0.104276 -0.059878 -0.033603 -0.018459 -0.009940 -0.005253 -0.002727 -0.001392 -0.000700 -0.000346 -0.000169 -0.000081 -0.000039 -0.000018 -0.000008 -0.000004 -0.000002 -0.052450 -0.033484 -0.047903 -0.031306 -0.029944 -0.022591 -0.013893 -0.013347 -0.006929 -0.007103 -0.003494 -0.003660 -0.001757 -0.001855 -0.000878 -0.000930 -0.000435 -0.000462 -0.000214 -0.000227 -0.000104 -0.000111 -0.000050 -0.000054 -0.000024 -0.000026 -0.000011 -0.000012 -0.000005 -0.000006 -0.000003 -0.000003 -0.000001 -0.000001 -0.000001 -0.000001 -0.000000 -0.000000 -0.000000 -0.000000 -0.000000 -0.000000 -0.000000 -0.000000 -0.000000 -0.000000 -0.000000 -0.000000 -0.000000 -0.000000 -0.000000 -0.000000 -0.000000 -0.000000 -0.000000 -0.000000 -0.000000 -0.000000 0.000000 0.000000 0.000000 0.000000 0.000000 0.000000 0.000000 0.000000 0.000000 0.000000 0.000000 0.000000 0.000000 0.000000 0.000000 0.000000 0.000000 0.000000 0.000000 0.000000 0.000000 0.000000 0.000000 0.000000 0.000000 0.000000 0.000000 0.000000 0.000000 0.000000 0.000000 0.000000 0.000000 0.000000 0.000000 0.000000 0.000000 0.000000 0.000000 0.000000 0.000000 0.000000 0.000000 0.000000 0.000000 0.000000 0.000000 0.000000 0.000000 0.000000 0.000000 0.000000 0.000000 0.000000 0.000000 0.000000 0.000000 0.000000 0.000000 0.000000 0.000000 0.000000 0.000000 0.000000 0.000000 0.000000 0.000000 0.000000 0.000000 0.000000 0.000000 0.000000 0.000000 0.000000 0.000000 0.000000 0.000000 0.000000 0.000000 0.000000 0.000000 0.000000 0.000000 0.000000 0.000000 0.000000 0.000000 0.000000 0.000000 0.000000 0.000000 0.000000 0.000000 0.000000 0.000000 0.000000 0.000000 0.000000 0.000000 0.000000 0.000000 0.000000 0.000000 0.000000 0.000000 0.000000 0.000000 0.000000 0.000000 0.000000 0.000000 0.000000 0.000000 0.000000 0.000000 0.000000 0.000000 0.000000 0.000000 0.000000 0.000000 0.000000 0.000000 0.000000 0.000000 0.000000 0.000000 0.000000 0.000000 0.000000 0.000000 0.000000 0.000000 0.000000 0.000000 0.000000 0.000000 0.000000 -0.000000 -0.000000 -0.000000 -0.000000 -0.000000 -0.000000 -0.000000 -0.000000 -0.000000 -0.000000 -0.000001 -0.000000 -0.000001 -0.000000 54970.475935 48812.717507 46315.406585 46951.347458 46722.846946 39227.687122 41595.272506 41233.548247 39613.608217 37191.589002 35767.451756 43582.147129 44875.759844 50160.228706 50064.164319 47092.761893 46648.666674 41276.208729 41064.453096 37712.688035 37143.005080 32579.043705 49433.343634 49401.340980 49327.531246 42566.935183 43080.419335 41619.009795 41919.002439 39153.724817 38080.019993 34382.378849 32884.265570 49039.946535 50120.555241 47227.486258 47014.277372 44393.561714 44936.458359 39043.660509 38750.238968 37604.539083 35407.512324 32531.775507 51249.183275 44696.954655 47152.349431 42966.125577 44317.148602 40767.557171 42274.429511 40698.495861 33891.154527 31920.764168 30096.617881 49136.768277 51621.975727 48764.050711 47611.798231 44685.780176 39766.684322 38338.466714 34881.333245 33948.951692 32716.842381 30238.653087 51216.017316 42648.668142 42981.252925 44625.203190 41444.557126 38846.239001 38195.374741 37552.494637 34609.833537 31420.416759 27889.268804 49059.810433 49948.179440 47385.520113 44662.783498 42835.746277 38966.677025 35710.581193 33302.758942 32806.791914 31269.080211 28736.441076 48458.300352 40204.860728 41503.095232 42995.121280 39660.661062 35540.405579 36507.611518 35080.792907 30036.833012 27072.911156 28387.906544 42348.543717 43780.632553 42918.504118 38423.609393 37316.467786 37826.182912 33920.318243 30376.460628 31846.172287 31448.284933 25318.730479 41133.949861 39423.492001 36446.598904 37888.147317 39035.153296 31989.656671 33818.477267 35788.676645 26067.339291 26519.189964 29438.171354 38196.119455 37454.087953 36496.327738 38122.215499 32553.995036 31548.196799 30355.453314 26882.288671 30444.065058 24587.899821 22891.058361 34438.647557 35756.332543 36657.758605 32374.837481 32310.129973 32374.704013 28479.911789 29478.402013 18063.710561 23294.022555 22412.318013 33353.204840 37193.251719 32852.944924 30397.954863 33195.168784 28030.169515 26120.243480 22778.719161 26123.847322 16679.633692 10688.689819 32938.980987 34766.715633 30970.124036 31784.525666 30602.565162 24651.693220 29893.258833 20625.496248 14259.601322 17821.186225 7913.562564 31916.456593 31821.304260 30639.056769 30080.179882 26245.147491 26615.634743 22663.544031 20647.204542 9553.952306 9532.477156 -6444.757610 30598.707558 31000.588474 30235.343656 26048.577175 27897.137613 21259.618353 20492.107660 15937.250833 16102.087172 -7113.833319 21018.370389 28361.394262 31373.735090 27400.678999 26678.009543 26635.734666 22092.897709 24892.765311 11755.502230 2912.875283 11304.874712 15061.450642 28204.570493 31264.859033 24941.344078 29795.920089 20326.188313 25938.880470 8911.613110 20247.106099 4972.160427 4015.414501 38341.258599 28423.907620 30177.514770 24662.951907 28786.520446 19794.265071 23703.544423 17145.252278 7349.620183 8201.798236 4075.503072 7690.360069 28014.487981 28204.228654 25655.511607 24953.022821 23901.050928 15519.890416 21516.799237 11303.363909 4510.077223 10123.988590 5335.180060 26659.663736 26624.223449 25070.051075 22494.630201 23778.611439 14194.227267 18637.509358 10665.741312 12592.858856 5935.748921 -3023.972618 24638.202003 25599.845384 23460.861763 22213.517371 20294.997616 17140.422637 11278.386983 12016.526131 10410.649626 6908.548090 3457.425647 23420.106193 24674.205903 22134.828132 21870.232959 17969.027055 17389.207597 11472.815284 11912.762593 3981.954318 6145.941775 -10285.447774 23464.141555 23938.606526 21316.084241 20606.865222 17540.669042 15047.409177 13853.632540 7967.252821 7741.262649 11876.315611 12644.676749 23433.658454 23136.069304 20909.651425 18945.200783 17467.628394 13351.983474 13138.796558 8314.069178 10372.955937 9377.103015 8409.968745 22754.534826 22103.918673 20391.569822 17902.342722 16252.430322 13479.316792 11173.774933 10728.366313 8591.233721 9786.589452 14332.453159 21921.228288 21227.462331 19531.150234 17354.650041 15061.485385 13406.697515 9932.331726 12078.103612 2727.508236 10830.167059 12809.725952 21350.966558 20525.465763 18779.241406 16469.987560 14464.141070 12484.786196 9466.698109 11200.599387 1052.234870 10054.489374 8789.103036 21293.432830 19830.781618 18237.345053 15560.463379 13948.277147 11404.001029 9656.639302 8878.590662 3426.348792 6782.304070 7831.952781 21255.388569 19162.951466 17636.343070 14910.930441 13355.311512 10642.305591 9678.378490 6678.063172 6019.189472 4155.757545 8113.210005 20735.358046 18341.471238 16973.358137 14351.243060 12656.119117 10166.699932 9407.589389 5613.876907 8020.189320 2172.074051 9486.331502 19622.961804 17194.298400 16238.951961 13744.896529 11825.433102 9884.191686 8486.022354 5070.633435 8558.163784 93.635198 11757.682150 18143.370901 15871.779100 15282.768773 13051.782320 10920.172920 9631.798663 7664.001929 4916.275421 7759.204060 -1038.557984 12330.190549 16788.174344 14625.026830 14071.128886 12246.902074 9995.978073 9180.889216 6871.498358 4781.506514 6384.874151 -947.492147 10248.920155 15412.071960 13437.173803 12700.298377 11332.979793 9112.555469 8555.910089 6212.801872 4571.071115 5163.409837 -439.740873 7199.720945 14007.233027 12222.007949 11229.548119 10365.711962 8282.983919 7843.070493 5779.807906 4344.425968 4341.621846 -143.890540 4978.347337 12369.836407 11056.783189 9710.605282 9368.953835 7522.322271 7152.135612 5568.965184 4256.297722 3959.604521 326.408788 3602.521374 10539.768419 9846.106110 8217.524179 8328.096695 6784.350192 6516.111461 5421.495523 4185.710155 3730.738236 736.647776 2904.796199 8735.651143 8664.239547 6824.933681 7225.785901 5987.226501 5809.726026 5111.015509 4026.463419 3625.724238 1088.951198 2475.832294 7066.245631 7541.284260 5533.171496 6063.646790 5080.142342 4956.984997 4533.942024 3640.632721 3224.804826 1173.566477 2042.967529 5595.788239 6471.305038 4348.690328 4902.014068 4070.618502 3953.535183 3707.330922 2980.688190 2659.603322 1039.725589 1502.943577 4407.266308 5514.691091 3309.438069 3818.923292 3049.919494 2904.826693 2743.321231 2133.008524 1908.566733 598.905966 966.123034 3544.982638 4748.956825 2454.262323 2896.794186 2115.743113 1935.411418 1813.816680 1293.432986 1173.016892 148.371935 515.134188 2979.358268 4208.002356 1805.404587 2200.790247 1360.070272 1153.012779 1046.376873 583.097079 537.338851 -258.939757 155.966046 2645.543990 3811.263989 1352.931147 1744.273589 837.701048 613.927444 523.423448 95.374580 87.575207 -542.636194 -81.773009 2427.960117 3631.817676 1076.745477 1488.460984 539.725307 302.167247 233.670228 -172.757294 -165.208283 -680.486990 -210.261385 2338.429029 3585.971835 947.490825 1381.712133 417.966932 173.970925 124.140687 -276.817908 -267.427399 -708.462616 -266.618598 2312.369705 3628.961076 935.525959 1386.756924 412.027926 166.802256 130.640045 -277.809906 -273.666027 -672.615471 -285.030215 2346.067046 3737.227856 1005.380848 1470.480531 481.930386 226.412797 197.825866 -229.642061 -236.049916 -615.907576 -290.771499 2453.897575 3910.567431 1144.678959 1611.537336 610.749566 325.158883 295.551210 -162.631008 -185.332300 -562.995404 -295.752051 2645.064306 4154.330998 1363.821908 1802.367641 794.019968 458.291522 418.063119 -82.292170 -129.336411 -519.655532 -300.711816 2925.744804 4465.279263 1665.950502 2050.261669 1037.310492 632.989653 573.803381 20.684694 -62.308240 -480.014872 -300.328324 3296.598403 4839.368766 2049.177179 2359.867504 1343.732190 859.581718 773.446682 158.303743 26.148677 -433.622001 -288.459174 3742.421964 5266.847262 2505.871530 2727.845063 1711.169705 1142.422557 1021.809113 337.532507 143.805727 -371.507866 -261.715112 4246.290413 5736.533330 3018.030472 3145.795741 2130.112330 1474.789730 1315.847205 557.336968 291.996281 -289.210534 -220.231008 4791.812255 6231.328498 3559.952744 3598.347170 2583.424898 1843.305969 1644.916731 808.948055 466.112463 -186.860562 -166.684728 5351.760157 6726.991047 4107.835775 4067.122554 3050.089736 2230.449759 1993.121515 1079.573066 657.977914 -68.057872 -104.780417 5897.540980 7205.984299 4640.583407 4530.261107 3508.136920 2617.552740 2344.047701 1356.059648 858.084841 61.793559 -37.971402 6408.782451 7653.600851 5136.861509 4969.848473 3940.703877 2988.880494 2683.207101 1626.568421 1057.588377 197.079645 31.156582 6871.647083 8058.021087 5583.938190 5374.279317 4335.892809 3333.628435 3000.158950 1882.197444 1249.359717 332.557069 100.954508 7256.981583 8393.020821 5971.653366 5736.452170 4685.752203 3645.012701 3289.065428 2117.985044 1428.385316 463.495845 170.441256 7680.065894 8668.107443 6297.853768 6055.453870 4989.664295 3921.122494 3546.799709 2331.232513 1591.752808 586.067856 238.889424 7966.469299 8903.348463 6569.977384 6330.939813 5250.588508 4165.301815 3773.431075 2520.769048 1738.167775 697.279883 305.413893 8212.647888 9105.574191 6800.810829 6569.654540 5473.496998 4380.493375 3970.805897 2687.608979 1867.657486 794.760271 368.785253 8416.371617 9277.074964 6999.513478 6778.492912 5666.332951 4571.394239 4141.683919 2833.636543 1980.687411 876.742345 427.645312 8600.593998 9433.871951 7178.535642 6962.895298 5834.830577 4742.772979 4289.315028 2961.092383 2078.164082 942.148528 480.546760 8775.561533 9580.984318 7346.067742 7132.094864 5986.209939 4897.435353 4415.336168 3071.364750 2161.483401 991.162547 525.967186 8947.154820 9722.635149 7504.699134 7288.145374 6124.878562 5038.170501 4522.201426 3165.646535 2231.621051 1024.960319 562.959518 9121.232354 9862.590141 7658.671882 7433.974862 6250.537461 5166.345626 4612.463059 3245.470984 2290.066087 1045.333057 591.391591 9316.763243 10019.766803 7814.970233 7574.882016 6363.744930 5281.469760 4688.962092 3311.934894 2338.896930 1055.615254 611.693796 9428.761369 10185.583129 7973.832332 7712.630077 6472.243512 5385.905788 4754.682564 3367.929378 2380.175121 1060.364025 625.196229 9622.184830 10350.239632 8139.476370 7849.798349 6578.119927 5487.731759 4813.775421 3417.598882 2417.258709 1064.092219 633.902220 9819.467096 10521.829667 8314.633580 7992.909003 6684.364009 5591.399020 4872.997214 3464.891615 2454.296764 1071.449096 640.301128 10033.268248 10713.426173 8505.320730 8153.145174 6805.754962 5703.582777 4942.434878 3518.083315 2494.906928 1085.289671 647.622373 10264.643147 10926.271936 8711.255889 8326.536738 6942.293196 5828.794944 5024.983812 3583.030221 2543.365702 1107.021419 657.732490 10535.937779 11171.896428 8955.694108 8537.034022 7110.784050 5981.137089 5130.507300 3664.555605 2602.977384 1139.605924 671.651947 10841.695654 11441.250239 9228.096681 8784.328853 7311.504603 6158.898014 5259.442726 3765.957986 2672.819502 1181.386247 691.223282 11222.922661 11776.464572 9554.511445 9070.094013 7544.663831 6370.219327 5413.338007 3888.948054 2755.398356 1229.448792 715.561814 11634.111094 12135.176931 9931.685544 9404.231253 7822.382282 6617.376323 5590.905282 4030.274970 2850.322961 1285.789991 742.611436 12109.098720 12530.622168 10336.072170 9742.169316 8111.525045 6875.054567 5775.632931 4177.724743 2945.085649 1343.554051 770.295713 12612.142768 12960.436777 10795.097754 10125.989129 8444.553139 7167.214888 5987.862533 4346.886631 3051.428961 1404.529775 799.309808 13103.517877 13361.376001 11227.932211 10476.922108 8743.024812 7417.403175 6164.098041 4490.579062 3143.342842 1457.583601 827.645026 13637.377113 13875.119075 11719.123130 10854.219863 9087.492462 7706.430951 6384.723264 4659.374265 3241.052175 1512.384478 845.409077 14020.200207 14198.813716 12102.233123 11169.038606 9390.017665 7923.241658 6548.321827 4798.304810 3333.169175 1586.692221 872.383486 14601.138386 14839.089962 12647.650184 11541.191425 9737.512821 8181.795159 6762.386302 4949.870688 3390.764997 1615.235239 879.172221 14738.577419 14970.401884 12883.294185 11780.287748 10046.680283 8408.131040 6947.876294 5127.529284 3554.544491 1757.185582 906.628122 15419.950607 15733.923017 13438.274478 12186.238324 10395.207064 8692.053528 7236.838633 5277.832375 3544.309169 1761.112590 944.207156 15399.839606 15862.145096 13674.552703 12415.418176 10670.222563 8797.059611 7339.950187 5510.066735 3852.810025 1989.987357 919.119545 15837.504719 16164.124113 13852.320109 12708.509057 11102.658848 9378.770873 7865.829360 5678.550558 3756.151590 2064.613434 1118.343666 16373.375137 17176.336139 14707.548413 13138.385712 11152.832840 9007.748854 7722.871639 5990.255676 4157.588701 2016.573071 1003.550100 15880.934658 16237.338719 14002.567953 13077.815227 11984.057691 10094.403412 8509.177412 5840.413413 4244.586538 2846.297633 1032.350777 17794.317543 18615.824482 16208.732213 14225.986707 11446.619576 9284.673148 8262.953441 6642.156432 3854.515882 2006.848163 1519.954929 16378.876464 17627.620669 13711.478490 14314.725772 13315.324842 11035.407214 8813.152607 6334.888452 5378.668342 2552.641676 1252.374669 19295.994731 19109.097512 17506.059069 14785.793196 11726.320400 9409.258474 9934.417800 6373.607039 3694.360035 3603.477859 935.600614 18845.790006 20141.776975 16515.300287 15732.271668 14802.021574 11787.803334 7474.482742 9083.273612 4466.265828 2999.285588 1553.356144 19477.130326 18810.510502 19782.284835 15528.810820 13943.272282 12782.911247 8808.496213 7233.240306 4853.779969 2785.357204 1741.504992 23328.583069 23261.433940 18112.578849 18628.964594 14838.903144 12567.126925 10229.584231 7671.625567 5530.137321 3952.266706 886.404910 22428.486998 18977.158620 24561.023917 15136.729321 14666.590755 10472.245339 10596.165601 7881.254307 3303.112772 3727.315662 1241.717840 25764.109248 21574.682033 23897.951096 21937.706594 14889.277559 13455.895217 10444.951418 6959.460684 4899.778778 6981.447616 632.299774 30259.114512 17848.235184 16708.465299 14610.059217 13219.790833 11782.324309 8793.570974 7644.655021 7892.730839 -679.934478 736.414279 32427.812035 30104.045599 26975.738723 23643.223365 20451.004839 17712.226306 14536.230540 11199.982569 7801.236481 6345.424356 3829.254535 2013.334694 1991.408067 -2574.110655 30416.593849 26440.057451 24265.995929 21299.127496 18628.647225 15688.908010 12652.416263 10292.076246 8162.535496 6093.341667 3519.369464 4689.510150 -1013.187203 552.667538 30369.908080 27720.434008 25018.661594 21782.854910 19052.194626 16379.976378 14196.015510 11672.778658 9103.637972 6854.532111 5136.952744 2053.105340 1306.352249 1020.754363 29683.786244 27065.270816 24303.562871 21771.523790 19604.729524 17097.309334 14666.534070 12175.818863 10193.674102 7543.568577 5397.753182 4536.075452 2056.698920 842.670837 29087.868665 26174.417374 24204.110717 21608.441700 19360.291492 17125.279494 15186.014253 13338.734828 10886.915320 9094.686497 6971.742605 4248.913896 2401.954424 1311.472838 26991.557889 25308.113179 23043.071436 21420.207106 19907.581771 18288.795566 16228.666467 14326.460236 12777.119356 10612.120322 8185.437942 5946.345507 3184.426845 1595.815797 27221.356953 25852.449541 24198.987763 22005.518126 19863.125517 18183.581103 16905.798200 15186.119780 13036.727077 11065.337695 8719.949995 5884.203818 3077.378668 1685.680079 26438.354554 23154.565026 21744.559979 21078.804120 20259.606602 18204.561767 15747.700691 13916.184924 12610.946941 11293.452374 9274.104697 6759.951220 3565.752398 2005.489828 29605.928833 27290.884605 25842.866026 23759.749652 19244.185171 17074.763284 16079.935239 14502.725173 12012.411778 10140.686929 8405.165245 5929.116600 2757.890459 1658.856569 20840.842866 25393.176816 21661.650761 17752.776332 17329.997505 17259.268811 14104.804622 10852.428169 9311.619457 8623.987148 7573.600503 5824.369197 2632.914767 1601.555519 25620.563205 18078.336396 19602.431486 20102.228295 19142.484823 15968.644562 12585.333479 11265.492653 9869.356274 8087.647881 6979.556706 4544.035416 1284.525422 1365.881984 25659.996370 14915.376362 19393.449266 16771.778639 13926.241959 12883.184777 12119.857040 10947.919925 10225.438471 9281.308961 6590.284181 3208.756486 1997.332715 1039.239410 11821.297580 16850.959392 16812.740909 10138.626912 8539.695461 8855.608688 9491.208211 8189.726954 7204.359713 4886.183029 1465.041998 1143.689887 1225.283813 1285.500151 1645.372983 17607.057491 10843.462599 11193.169256 9248.243334 6415.663015 -1382.965906 8297.050522 7248.316922 7448.973904 565.668842 3355.169512 3060.110106 1624.077979 6501.241568 6663.678505 9787.157333 -4437.586538 -7768.641633 1657.083696 19356.283637 9105.248137 4896.848279 18158.894751 11099.192243 366.141934 3625.284298 1977.135990
</DataArray>
<DataArray type="Float64" Name="Velocity" NumberOfComponents="3" format="ascii">