<VTKFile type="PolyData">
<PolyData>
<Piece NumberOfPoints="1945" NumberOfVerts="1945" NumberOfLines="0" NumberOfStrips="0" NumberOfPolys="0">
<PointData>
<DataArray type="Float64" Name="Pressure" format="ascii">
 18442.252978 18410.982625 17663.828060 19381.964336 18689.600252 19885.992825 17888.873885 18987.713467 17503.694529 18067.953885 20201.302340 18258.746679 19739.304990 17380.073766 17163.663304 17268.016363 17786.492520 18896.043767 18994.123694 19367.876547 17352.939014 17602.481443 19435.771462 18649.747474 20957.351273 20224.507749 21492.620634 19379.805985 22696.305871 21572.192598 17528.090085 17292.161460 20170.826291 20242.171105 18650.736925 19084.461253 19459.472737 19776.719483 18479.828880 18822.171090 20132.052988 20711.278562 19259.417909 19312.928190 20887.049583 19001.520183 24146.695362 21617.422342 21687.711563 18951.155979 24543.132006 21242.763548 21052.112632 19736.276418 23708.171725 21440.804988 19884.618931 18408.078129 18604.416851 18970.320011 18908.759025 19382.987837 18883.151388 21130.337381 19035.046233 19678.540244 21293.908822 21351.121856 18759.241047 18583.179294 20549.043828 21498.169945 18095.562555 19944.642741 18896.018850 21816.203297 17889.857753 20541.605399 23666.337557 24292.729658 24840.770887 22372.327965 25337.953661 22906.327561 19911.581387 20882.796304 21429.082063 22496.592179 22222.151190 24188.893214 20931.228871 22101.782538 23205.981860 24067.237519 23046.846650 21677.482477 23540.222363 23055.189712 23907.334246 23570.400360 21399.151072 21173.276353 22044.457953 22261.449170 21078.577042 21289.109608 22237.553547 21933.367734 23898.020888 24193.060262 20892.533772 21662.348016 21549.742179 21850.467794 21158.291404 22076.565720 22232.565980 23319.816116 23512.397540 23196.511217 22297.339977 21143.405030 23990.674397 23510.081154 22837.187840 22461.019395 22291.671353 22726.843429 23661.311939 23550.808069 21972.504433 21347.568416 22771.074956 22021.241204 22319.669451 20522.830349 22869.498190 21617.662782 22387.440845 19702.186207 20590.066378 19199.541636 22211.732573 20234.274430 17752.053971 18015.914319 17810.323892 18891.440530 15501.139437 16903.098133 16838.349048 18021.075016 16481.905373 17399.429951 18011.734851 18104.404577 17725.986412 16745.543789 19315.683989 18200.454709 18558.547176 16091.274616 18106.253133 16078.676831 18485.844981 16879.462205 18146.706877 17372.932914 17329.731680 17520.084721 17825.824098 18057.940861 16606.278335 16832.321004 15860.499091 16798.225165 18105.205067 18365.112303 18152.053371 17603.675445 19950.339266 18245.656672 19545.816128 18853.327751 21208.259971 19852.466131 20764.793895 18849.163540 19968.272565 19964.546561 19819.652063 19579.229161 19602.562803 19212.993125 19980.338305 19861.631172 19846.719314 19884.830604 19192.724172 18852.819755 20088.663233 19547.616404 19689.262046 20312.592303 20822.368386 20812.513190 19958.527211 17044.733866 17053.568123 15145.678934 17661.411264 14842.076654 15131.872797 16081.108796 14448.765833 12257.579015 9699.670029 6885.061953 5295.769092 3497.373344 2357.515354 2786.979494 -535.122645 -4648.173778 -5279.109723 -5065.427193 -4773.064171 -4479.306935 -4166.198308 -3841.568204 -3518.267559 -3210.069882 -2929.316016 -2685.461038 -2484.360695 -2328.176775 -2215.735523 -2143.165553 -2104.661699 -2093.255770 -2101.513755 -2122.114145 -2148.289468 -2174.131923 -2194.775405 -2206.472147 -2206.584653 -2193.513684 -2166.581928 -2125.890858 -2072.165723 -2006.600747 -1930.713693 -1846.216151 -1754.903418 -1658.565942 -1558.924078 -1457.596110 -1356.167243 -1256.760940 -1165.950608 19989.229774 16969.248676 15199.320215 16317.079906 13703.660785 11532.504928 9198.345952 6042.615426 5278.852100 2821.225629 315.442053 3928.721022 -604.107870 -6804.639697 -5401.757046 -4977.495478 -4754.873774 -4472.570646 -4163.333659 -3841.543940 -3520.964588 -3215.207836 -2936.367966 -2693.750937 -2493.178307 -2336.868165 -2223.760813 -2150.126718 -2110.307046 -2097.468559 -2104.291610 -2123.544425 -2148.524125 -2173.364023 -2193.218532 -2204.343283 -2204.090726 -2190.841753 -2163.892757 -2123.315525 -2069.804787 -2004.525447 -1928.968628 -1844.822896 -1753.864492 -1657.867987 -1558.535469 -1457.431616 -1355.852702 -1254.218399 -1148.248516 14220.149151 17175.057413 15813.734193 15457.719861 16548.516720 13497.748898 12974.838349 12222.116425 10704.166364 10664.195700 8714.160392 8162.299972 5949.423931 4391.847514 3433.315277 2714.347445 2127.112084 1642.407067 1242.692652 914.196406 644.624432 422.901153 239.430506 86.310230 -42.650847 -152.090989 -245.356857 -324.798079 -392.046017 -448.249935 -494.261040 -530.765895 -558.376362 -577.685244 -589.296625 -593.838638 -591.964816 -584.348612 -571.674340 -554.626721 -533.880445 -510.090554 -483.884106 -455.853288 -426.549997 -396.481737 -366.108218 -335.835440 -305.988143 -276.648761 -246.628879 15317.878784 17447.479892 16135.686420 15328.581896 14941.563950 13220.078767 11999.625190 10799.186887 9637.603223 8824.026230 7754.573128 6672.613230 5462.398276 4362.942276 3464.340766 2739.673224 2147.292995 1659.124956 1256.766335 925.954067 654.276977 430.691306 245.651235 91.274520 -38.645892 -148.789216 -242.554467 -322.344206 -389.836648 -446.218821 -492.370113 -528.996638 -556.722755 -576.148413 -587.881029 -592.549521 -590.806633 -583.324159 -570.784368 -553.869873 -533.253381 -509.588190 -483.499905 -455.579562 -426.378251 -396.403227 -366.115952 -335.935009 -306.262772 -277.645901 -251.833529 -1098.610064 -1067.205215 -1070.165752 -1039.523333 -998.521018 -980.631765 -907.485347 -905.020520 -827.360873 -827.344598 -752.850970 -753.251584 -683.205599 -683.675040 -618.293965 -618.769752 -558.039299 -558.506725 -502.332252 -502.785478 -451.026045 -451.461531 -403.943589 -404.358886 -360.885406 -361.278848 -321.636633 -322.007178 -285.972905 -286.320029 -253.665240 -253.988838 -224.484025 -224.784329 -198.202236 -198.479747 -174.597992 -174.853421 -153.456554 -153.690772 -134.571840 -134.785833 -117.747534 -117.942372 -102.797859 -102.974663 -89.548064 -89.707982 -77.834666 -77.978856 -67.505509 -67.635116 -58.419647 -58.535795 -50.447107 -50.550885 -43.468548 -43.561004 -37.374834 -37.456969 -32.066559 -32.139318 -27.453514 -27.517789 -23.454139 -23.510764 -19.994956 -20.044706 -17.009996 -17.053588 -14.440228 -14.478323 -12.233009 -12.266213 -10.341538 -10.370404 -8.724342 -8.749372 -7.344783 -7.366432 -6.170593 -6.189270 -5.173435 -5.189507 -4.328500 -4.342296 -3.614128 -3.625941 -3.011463 -3.021552 -2.504134 -2.512730 -2.077968 -2.085274 -1.720724 -1.726918 -1.421860 -1.427097 -1.172316 -1.176731 -0.964323 -0.968036 -0.791237 -0.794350 -0.647383 -0.649984 -0.527925 -0.530091 -0.428747 -0.430542 -0.346350 -0.347829 -0.277765 -0.278978 -0.220478 -0.221465 -0.172368 -0.173166 -0.131656 -0.132296 -0.096869 -0.097380 -0.066815 -0.067224 -0.040574 -0.040908 -0.017502 -0.017791 0.002741 0.002466 0.020154 0.019855 0.034326 0.033956 0.044342 0.043844 0.048666 0.047967 0.044981 0.043993 0.029999 0.028610 -0.000772 -0.002700 -0.053312 -0.055947 -0.135410 -0.138956 -0.257041 -0.261744 -0.430790 -0.436940 -0.672320 -0.680258 -1.000887 -1.011007 -1.439879 -1.452631 -2.017386 -2.033278 -2.766770 -2.786368 -3.727227 -3.751149 -4.944300 -4.973214 -6.470336 -6.504949 -8.364835 -8.405883 -10.694666 -10.742895 -13.534102 -13.590250 -16.964640 -17.029411 -21.074565 -21.148601 -25.958207 -26.042058 -31.714876 -31.808961 -38.447423 -38.551996 -46.260426 -46.375533 -55.257970 -55.383412 -65.541039 -65.676329 -77.204527 -77.348846 -90.333906 -90.486023 -105.001700 -105.159649 -121.264314 -121.423593 -139.162440 -139.305237 -158.744505 -158.773690 -180.223108 -179.574567 -205.069737 -200.137461 -224.895951 -216.378220 -232.972004 -224.261825 18207.945736 18685.682397 15849.057014 20113.095926 17472.099097 15487.908220 15482.222319 15784.122966 12714.064549 14582.699621 14693.253680 18914.541745 14443.876611 16423.841340 13124.173526 10414.619482 6377.386877 11837.830666 12094.251695 15744.955369 16441.927400 11358.107578 16763.631603 18922.991548 15791.574907 16013.034041 17329.194125 18119.535869 12604.464754 15779.962326 14539.502957 2474.860528 15872.432012 20430.293616 19260.419654 16332.801087 8332.082194 18359.864635 16028.419470 17541.284300 10382.076166 15997.894802 11757.345214 18651.499402 13668.713835 11636.369825 18740.853345 18982.014838 23274.951492 13941.709982 19082.905971 15179.769117 8240.131708 12172.129434 12984.224042 21822.482023 21350.141059 21207.784138 18326.673452 20297.640444 16334.025057 19517.793939 15392.359488 16501.987951 12502.552135 17438.736363 18637.264854 16623.839092 18934.851127 19349.006962 19416.953703 17954.761151 17419.472883 15396.448740 16240.950293 16639.455809 11682.498011 19429.488341 19175.263822 18418.874715 19095.191695 19528.084288 19245.944900 15596.742693 19577.282108 16645.005946 10995.929730 13702.125369 19908.732194 19360.271628 13908.228610 18365.017505 18359.886376 17151.728688 15916.529625 18853.474428 18160.434549 7192.331113 13422.992911 19298.645664 18768.432170 19582.045159 19658.163950 13395.629698 18759.197699 12847.257497 17142.826569 18605.798010 8135.014979 15607.898744 20329.066067 19678.633093 19725.961491 9931.164881 16361.368403 14218.367595 19146.750873 11987.486059 12934.232237 8502.904503 8764.732744 19370.199611 17028.128661 12507.951085 17662.453262 12335.035936 14901.789968 12939.402079 14323.006950 14997.866130 19415.622057 14253.004589 19168.695288 16557.333111 20770.450689 20078.394754 12658.797710 19969.365977 14365.576246 10124.981319 19138.533415 20439.056210 14512.089959 19704.974837 17919.069201 21077.132515 22747.243750 19416.797765 18115.915158 18928.982927 12264.578919 17169.794765 11649.630167 14881.052913 20759.657622 22037.293444 19955.998763 18580.834613 19332.677998 21163.183108 15568.627361 16853.336883 9893.929718 10004.006466 10249.142190 20649.435037 21420.120735 21137.365669 16116.224312 12731.917743 14056.503417 15924.247616 13628.226261 8338.668821 5758.174444 9070.336501 20015.102124 23349.995024 20424.110955 19206.822384 19352.912132 17154.959993 14278.710689 20655.941120 12186.883606 3544.576411 7914.841705 21328.968165 16991.922805 21501.731390 16156.827903 12814.557520 9288.735283 9027.153642 10561.936760 6186.442937 6593.634784 6593.968377 20906.913107 18263.164858 18529.806839 19719.875616 16812.062441 6884.935732 16179.900329 9305.182984 10036.161419 6620.910361 5477.869216 22348.285775 22877.856456 19489.265792 19368.568752 11601.759492 12555.862785 11509.387909 8903.567333 5635.774948 5181.322874 3370.763742 22665.070204 19520.661195 24356.670876 17543.453091 13163.402522 6141.259550 6913.965804 4170.187579 5462.063460 6211.375177 4579.044397 24075.803253 21608.997005 14069.259586 13047.759549 15247.645274 7771.727890 8309.029584 8074.725351 8359.279631 6077.118780 -1036.575240 23189.424052 20901.324311 20479.766461 14161.869327 16679.925062 14696.804674 6682.664844 8964.544600 6351.236380 8246.421702 7201.617951 17922.461282 21021.893433 15612.714381 16874.963652 13571.013862 15689.986178 16524.299141 12979.119160 10915.309617 9544.483290 4113.137915 21789.220068 18457.412945 19085.692139 16967.176755 16236.588405 16557.532388 10512.395306 5357.224408 14835.227820 6764.041238 4738.690546 21840.781140 19591.805602 19977.874182 21832.774424 17591.491036 13416.041628 10920.935950 11654.813603 9675.588638 5797.346940 2226.362774 22485.336454 19329.562721 21197.553868 16677.037898 20285.539150 6880.765318 13215.993663 8557.344771 7242.155396 5866.152101 10278.096967 20090.788284 19203.922400 14634.121924 16283.307392 13860.004247 19899.924559 13099.863874 13799.376954 5920.660981 8148.935261 11539.421452 20155.991075 22616.121351 20036.295617 16181.616999 19403.486371 10270.465744 10272.652823 9370.384286 8935.296927 12964.796398 6763.524322 21205.662126 20967.036246 13867.181214 9298.238953 17633.938316 7793.908601 9510.265213 9444.515619 10803.096889 7586.760006 9149.034342 18831.464422 20042.429891 22825.304647 17328.860788 16966.690264 8903.093714 14565.618830 8372.992229 11358.868982 11283.721480 7114.984445 21926.682588 22902.301326 19748.450896 16509.801829 19734.935551 14460.047323 12758.853112 13390.844469 12688.642915 11146.827468 6270.825604 20859.255475 12091.187436 21879.319255 15831.170008 17601.364589 13940.465193 7818.785461 10702.620377 2475.241895 6598.537353 6027.898173 24343.376612 20795.369877 20804.065808 14793.387025 18967.784646 11259.617363 9154.073861 7520.657847 7248.440744 7227.834482 4639.326285 22486.134377 20427.887913 20353.076577 16689.482174 19167.974292 10967.004570 13185.421024 8683.887993 5827.073157 9397.534787 20006.977989 21985.764657 23754.208329 18315.156908 16759.599387 14061.603340 14801.854159 11201.150564 18480.120410 6247.566984 3000.941764 9129.423904 25191.881452 18394.018237 16366.698605 16546.086534 22727.038676 14808.451013 12301.279203 9267.582686 14848.309958 7855.747082 8873.898869 20727.587213 23268.973293 18579.064375 19101.970383 13227.098879 13040.260853 13901.162341 12918.075706 15829.864239 2934.105424 6096.897055 23085.312811 20134.263481 17935.974905 13988.949888 18678.228352 11706.253959 12399.581795 7138.422034 9212.880860 9318.731711 8344.581864 21172.537380 17661.503355 20578.389127 17093.082195 9451.309981 13684.013139 10759.460604 10555.554438 6524.103527 11694.526230 2522.337494 21586.882900 21971.096349 20702.560778 19659.212799 19551.728404 12295.748227 6586.244096 10655.274574 10824.655310 8736.569269 13672.016236 21336.837252 20011.210513 16697.086427 18236.432846 13964.148149 16390.181805 15272.391212 9375.857807 7301.503213 6692.002752 8956.946286 22631.418457 20654.866892 21147.129713 15878.340841 19596.795422 12172.022465 13958.667436 11367.940547 11831.759507 6955.582999 10829.483686 22472.099130 20526.477588 20338.148298 22406.009638 15162.705572 16059.343472 9841.695050 8456.736170 8356.369405 6935.109829 5507.582028 21469.682452 20680.165065 19611.671785 10950.844617 12719.237504 15440.518541 7597.046442 17673.757161 9242.679568 13636.583748 7763.160896 22580.802562 19878.093985 21033.103457 11446.262615 10880.843201 11903.598181 11331.671074 12689.953122 8108.167400 10371.179201 5483.032897 21897.884917 16043.413829 14208.160100 17818.073059 10823.940097 17478.067419 13218.990907 11105.479779 10465.449510 9735.654125 16824.890297 22769.161975 22733.497135 16752.343820 20548.400912 13750.720484 14225.702475 5985.993854 17819.849437 12774.784800 5148.603189 12568.960623 19963.429787 21508.648262 18279.452340 16650.507110 11278.347576 15028.789777 16260.391164 9082.285749 13979.332527 7184.750068 10341.060723 19395.050516 16164.732810 22167.147444 17138.042491 15176.938333 13304.273498 16857.214601 14131.227095 14606.702953 7850.241453 3388.340911 19223.073576 17334.340774 19108.127399 17892.077313 15431.485883 18046.706652 12709.058649 13380.933993 14861.404260 8350.736238 4842.744951 22246.923785 22219.692722 17814.517216 17381.969025 18505.704997 15769.191359 15019.495231 13305.732437 9335.507824 8565.081587 7385.457928 22284.479801 20717.557573 20135.725499 19804.766981 16167.071981 16928.093647 14931.956796 12541.373622 12629.561176 8501.167657 8361.968190 21865.286295 21607.853169 19534.025188 19821.723649 21523.197301 15114.595259 10546.214044 15197.786288 7371.941018 9780.215148 11532.416442 22077.264127 22773.919850 22294.904270 16622.085450 12533.202329 11497.260601 11046.705866 10807.634790 10856.397096 9597.318484 4851.549201 21230.571524 20999.474421 20760.127810 19162.597772 14020.040827 14166.618029 9708.877406 9247.045099 7407.648965 8179.286470 8812.615604 21252.029956 23602.448765 20356.666210 12029.914488 10606.429326 13447.176060 12618.636764 11365.968006 10601.211744 8027.213028 5884.323270 19985.480597 19411.718334 15561.343133 12226.001412 17465.134946 13206.375139 14092.508614 11642.381582 12204.055256 8463.556832 8413.730676 22635.973499 17998.675349 19905.916098 18896.976130 16983.788095 14833.854816 14456.453186 16171.913452 9700.766589 7899.361298 7184.338544 19265.259889 19765.522787 20009.694292 18231.223208 17001.247004 15314.222075 13856.747940 14679.370274 11359.210933 7241.890307 8300.000809 21470.215213 18259.843256 19632.813352 16436.837795 16639.137087 14809.609675 11867.441227 9539.658750 7114.355738 9453.379624 6773.244861 22678.925853 19698.049965 18938.783969 14256.256807 16511.957705 12689.120518 8599.572296 8303.278888 9256.893080 7276.625439 5799.775724 20221.724137 21149.699369 17335.497971 16841.606879 16417.553873 17249.886364 18282.188178 9508.288188 7061.623098 7557.477711 7167.818887 21929.492771 19042.309930 21828.266267 16956.546786 19516.719601 14017.760252 12787.342684 12670.747340 6845.617523 8637.497758 4598.157908 20472.963379 18458.770494 18310.288627 18735.077724 15583.169780 17127.118191 14609.749447 10139.753315 11066.210243 9327.537007 4809.848744 20681.615361 19907.359383 18203.619539 15569.559832 12093.194862 14989.639826 16144.361946 10114.158700 10877.818994 5492.332524 6294.279827 19840.225934 17233.522538 18947.354014 17898.339868 15001.255257 16421.564615 11347.894679 10931.264290 5425.788574 9184.596957 2956.995544 17744.933414 19065.904349 17488.877855 18046.454773 14296.037937 13072.720968 11086.612622 11111.582506 9717.384788 6492.107798 6246.355528 16831.447466 18524.513874 16111.054410 15366.219658 14097.845406 12315.581657 14927.780191 9715.211353 13670.778995 6100.315339 5108.102380 19250.447639 17080.508532 16064.672459 17762.433217 12747.835290 13149.279057 12578.387163 7958.114212 10250.365812 9777.557680 7088.779575 16573.892283 18541.533561 18075.923614 17323.774726 13552.382158 14569.094041 11791.139533 15286.694328 9816.916632 9693.790793 4201.775751 18818.681223 16429.834729 18468.683109 19566.750878 16207.001720 12397.949131 12651.357602 11281.075390 12698.218370 8725.282273 7637.698147 19534.319356 17462.213844 17388.196476 16593.298587 11391.918378 14503.738407 15202.067647 8922.611486 13195.263776 6473.761202 4884.064736 17757.869205 17146.341506 15942.183579 14650.583423 16695.104927 15935.924539 11261.618068 8837.824772 7775.371976 3709.304615 7235.164846 17884.838424 17887.561601 15827.510883 17437.341633 15159.831706 12946.779761 10014.866177 10641.003982 8775.495731 8736.610302 3696.303567 15605.039531 18034.669703 16600.220483 19719.158189 14320.750985 11131.154228 16447.574335 5698.205314 10577.536828 10370.276551 4785.632903 17051.326594 17887.994111 16291.375979 16224.574328 13092.709229 11848.497145 10710.860403 9524.939918 10425.873958 6645.936051 7176.031218 15306.898562 13709.158168 17188.564079 17612.526749 15481.072507 12034.706542 12525.831764 7559.501456 8121.792963 8417.125389 7340.086409 15812.656600 14575.537841 14823.507856 13437.099934 16120.247913 14991.919102 15871.953118 11445.066504 10002.218998 6793.338544 6422.426781 15017.559504 16505.867300 16176.642728 14973.296465 13722.347330 10929.390558 11001.728310 7776.021374 11300.362368 5013.430221 9669.884001 17313.587214 14348.021787 17069.109498 15430.238216 12275.360588 13993.894217 9786.186961 11189.587731 11410.378992 4485.204151 2281.932811 16963.451500 16267.459795 15973.886994 15196.842320 15235.954571 15772.958528 11419.006450 9149.600898 9316.171844 10236.273566 6951.977032 16840.047054 16436.354515 16466.582650 15905.031643 15585.455792 14899.667211 12270.431569 8363.983642 13839.493905 9370.097612 6188.573299 16665.513313 15319.506455 18661.222217 15261.098472 15129.118448 14400.671983 12172.073675 14571.090661 5156.918921 8575.832224 4806.650034 18498.447938 16215.759143 15070.014456 16816.793665 15280.104691 11639.317610 14287.715984 11582.912952 11174.709599 9811.971810 5706.989576 17725.476891 17224.969695 12267.373216 15830.909298 17412.503952 14425.791813 14123.865474 10504.597754 6775.614582 6468.927206 7090.540023 17125.056778 16351.269869 16840.660311 16109.799463 16122.506643 13131.294403 12427.988909 11485.185181 9070.280474 7255.590628 7296.602807 17501.464733 15329.485455 16266.276161 16838.095249 13003.691110 13848.781148 10139.681035 9565.811467 9638.309566 5726.726977 5487.327183 18576.167058 15199.634770 16545.980255 17129.015317 16454.956242 11493.799434 11794.111803 14491.644290 10251.245159 6881.497630 4193.188304 15756.549723 19324.028660 14453.448647 16188.417324 9905.485531 12383.694748 13077.443365 8791.702367 7032.600813 2458.053794 3334.346878 19505.079722 15125.047793 17215.341915 14834.545816 10628.663911 10840.224593 12157.826552 8532.835619 12076.009286 8256.676884 4525.604858 17752.916551 16097.826493 11746.593528 16460.231403 9831.837177 13725.923001 7394.504239 11267.426681 6480.535347 5950.232539 4182.709597 15793.658003 15900.585827 16748.120827 16029.564761 16765.683583 11707.349821 13195.641586 10883.251231 9959.132488 3850.016177 5235.358657 19213.273388 17084.287979 15974.122011 16625.976234 17048.433360 15909.461970 8966.285415 14882.029552 7334.231758 7811.140060 2581.406474 19759.936182 15035.862316 15053.564923 12336.441734 16901.730355 12343.829270 12125.880292 8429.176071 3287.758551 7453.426479 6376.948419 18370.773872 17912.904315 16593.903584 13168.309176 13392.408285 11302.843755 10942.797309 8587.201240 6673.202574 7400.318479 6210.487793 18484.314744 15986.959514 15848.271664 12873.673404 14273.455488 12181.972350 8741.828317 9438.728703 7415.110007 7919.359219 3358.258533 17065.047545 20482.115852 17514.533124 13405.349226 14630.410761 7382.028570 9781.249204 10696.831040 8745.520180 5611.194605 9900.136735 16017.878355 15039.866710 13532.445593 17483.007353 13022.716234 12944.237212 16896.630611 6705.869855 10104.195795 8766.249821 6160.636406 17037.272455 17486.285763 18850.146641 16884.450007 12040.606532 17791.995031 16670.081518 8431.238990 7430.985348 6684.991292 5965.988547 16731.336239 16644.928257 13947.633776 14044.587722 16234.040802 15209.692371 15642.829445 16446.828521 7216.580206 7442.184906 7557.062137 14711.118459 19009.673652 19660.942653 16888.621412 9498.431334 15616.611384 11824.173565 17483.637215 15434.361117 9799.788611 10399.623023 5502.374509 1886.496507 5897.393571 18842.720423 7458.673892 15840.731836 15701.720160 7535.928095 17967.206553 8572.577701 5149.054461 13279.939381 5836.835671 7019.314717 4883.115847 3313.187539 7817.765559 7350.456041 12635.609221 9985.767660 5659.122005 5736.351212 8025.263679 9049.224544 11994.872128 11808.232278 3813.157197 3650.510661 3907.979629 3396.560037 2633.256814 13418.582749 10128.887066 10274.832146 12018.970723 12289.683895 12871.232589 10562.813387 13537.163764 4934.856693 13476.991006 9917.476464 7459.098825 6096.954508 2623.273136 13577.248902 15713.664005 13313.487150 10035.273110 17282.879672 12179.997687 11916.670416 9745.602346 11135.055386 5309.054689 5246.476488 9784.076082 4186.284256 1125.438355 11909.286562 18385.968598 9027.503461 14399.694495 14004.359327 16326.693624 16565.536690 8228.881880 7676.040459 6036.267510 9327.587968 5893.597543 12551.227445 3998.625344 19112.336102 4740.174333 12202.723595 12723.288071 7739.469719 17061.926407 13649.946508 14669.483176 10833.520607 7953.425161 7361.167547 7208.949466 3816.048155 4748.226392 8809.357920 9832.215020 8711.076952 15134.594742 11325.640649 11848.144561 7529.037548 9042.561397 6494.857197 7256.139541 10043.315120 5159.258014 6253.934476 2962.849490 16712.949720 18094.955278 7205.186121 5763.820719 10058.715593 10871.203723 7133.852859 7063.090072 6112.240895 8602.506030 12113.623561 7549.272212 5208.529203 5023.656951 6092.273974 10589.132006 12449.880252 7340.236591 11740.340029 8414.015321 11084.283766 7766.186505 11774.395808 6066.423667 8446.087257 3527.421638 6117.772960 4523.472300 8204.719953 10281.596240 19885.083962 15077.326287 6114.893780 6834.588959 7833.888589 13097.089721 7839.471387 10346.195126 14620.745747 11587.177376 3763.976778 2336.517273 9765.108770 6230.046240 10548.727895 19719.001408 8406.898002 12411.248520 6971.078478 11511.979759 6556.427902 8855.458392 10286.498373 17891.141947 5576.431709 5867.519663 8460.977788 4694.887143 2854.814018 11287.135328 7270.802501 5542.587086 9850.272955 16351.357552 14583.440412 8205.255412 3431.012933 7025.336541 6207.150883 3408.435914 4299.957497 10634.127781 5764.717434 5754.203336 8523.887534 4764.074294 7884.317088 11536.116971 6517.047466 12420.677090 7026.978402 4938.973040 5515.074798 7026.320534 2320.498012 6123.139716 2586.854037 5340.600466 3066.382105 1834.199460 9480.133473 5412.188406 1237.551537 3667.870405 4656.998321 4933.912247 4156.337921 3090.657920
</DataArray>
<DataArray type="Float64" Name="Velocity" NumberOfComponents="3" format="ascii">