<VTKFile type="PolyData">
<PolyData>
<Piece NumberOfPoints="1945" NumberOfVerts="1945" NumberOfLines="0" NumberOfStrips="0" NumberOfPolys="0">
<PointData>
<DataArray type="Float64" Name="Pressure" format="ascii">
 49299.169595 45230.271321 46694.551246 40259.906258 49678.956304 42780.027729 49146.825632 38765.495300 48475.354120 40552.821612 47821.865143 42184.135924 46615.318512 40018.122981 45752.119010 39228.756345 47037.200318 41725.963606 47455.923984 42071.154059 44504.688997 41980.084235 43251.303342 35316.796509 53152.663356 49255.879777 41989.281169 34176.996721 45739.141588 40206.170677 45400.710217 42867.983735 31429.643082 23691.553476 34256.091666 29787.887858 43733.397308 41736.091665 32888.989938 21859.058991 44356.159479 38451.228449 36977.768104 27260.739064 36673.130904 28068.734934 37242.763247 28635.298985 33773.419158 25571.654027 34941.496487 30654.116116 30874.322376 26150.890819 30289.178164 26270.214572 29278.336145 25886.622284 28238.781763 25194.259140 27915.931841 26070.730327 27462.048090 26424.350109 27344.771875 27305.219156 26709.420996 27907.247280 26502.012018 29241.547033 26344.889907 29538.732986 26227.282112 30831.068985 25871.078678 31888.115385 25292.382936 31693.102401 24656.742545 31236.825537 24336.236477 31528.929265 24398.577937 31930.984254 24669.356048 32117.788984 24994.670624 33137.080721 25382.274310 33981.975581 25694.915542 34540.839182 25968.764572 34974.754562 26239.317137 35460.927614 26474.998510 36033.199799 26648.086131 36675.125151 26728.414964 37401.186479 26685.362624 38173.745641 26466.073172 38890.541137 26047.775800 39455.054899 25443.050173 39757.150259 24681.990074 39794.465960 23809.487490 39486.367916 22868.278345 38825.336374 21893.543735 37836.124924 20937.481033 36610.307942 20040.186821 35256.395954 19226.673737 33856.775250 18509.462532 32640.459846 17908.603406 31380.731589 17405.979965 30239.755776 16997.960152 29187.482881 16682.401869 28243.880722 16454.222001 27389.068799 16299.408158 26583.710784 16206.221739 25827.349263 16164.029398 25119.333915 16160.072993 24473.554983 16183.732514 23900.178773 16226.626843 23417.174556 16277.837027 23019.874173 16323.518201 22733.490150 16355.990902 22518.612318 16375.818817 22383.485582 16383.253371 22309.017801 16370.982660 22287.768119 16337.957786 22275.857776 16278.117004 22224.930529 16193.363222 22171.546608 16074.305307 21993.866885 15921.653153 21819.153639 15710.052763 21426.694852 15457.624755 21020.322520 15112.244693 20420.660138 14740.961173 19675.934856 14291.086183 19061.268649 13764.348993 18023.144996 13122.267564 17344.372665 12427.828209 16059.788277 11871.117166 15820.599606 11044.574169 14949.721709 10082.267706 14267.692387 9259.611154 13028.426918 8307.222594 13922.845980 7047.215693 12738.749869 6764.854790 11624.251773 5350.307386 11289.316426 4572.535395 9908.720900 3907.083646 9840.455552 3066.192910 8787.248523 2612.516099 3471.207724 41102.978936 40857.986300 41499.146953 34625.189664 32932.276594 32962.581453 29838.733405 26454.555602 24146.374102 21119.393860 17846.439180 13907.906165 10453.421454 7398.439702 4956.360907 4596.032827 4218.224025 4154.276705 685.543814 -1598.560797 -2226.612727 -5545.217887 -8172.091868 -7443.866690 -6283.128575 -5206.044944 -4261.813514 -3459.295028 -2787.905793 -2229.403469 -1765.935478 -1382.745334 -1068.172862 -812.761444 -608.366979 -447.579467 -323.473072 -229.586074 -160.014015 -109.524020 -73.634921 -48.640929 -31.579766 -20.158848 -12.657206 -7.819446 -4.754011 -2.843282 -1.669040 -0.954657 -0.529636 33891.168049 33660.794658 38720.154893 28118.614180 24025.874358 25997.552560 21778.486383 15965.522206 15902.577171 14008.517826 12134.144687 8446.593335 5757.551396 3199.961807 -572.573900 393.239888 -3685.994427 -4465.742834 -2254.283815 -1831.733693 -2873.681098 -7952.531283 -9477.992504 -7429.652502 -6267.888986 -5226.808773 -4290.782891 -3487.572446 -2812.596333 -2250.154348 -1783.292319 -1397.393613 -1080.656949 -823.438801 -617.454617 -455.218588 -329.780305 -234.682985 -164.037497 -112.623982 -75.965773 -50.351789 -32.806377 -21.018461 -13.246501 -8.214902 -5.013897 -3.010404 -1.773316 -1.012521 -0.525239 12419.044453 6077.065614 5014.465923 1371.890836 422.501125 55.705104 -91.459262 286.605349 -1416.002274 -5994.239179 -4165.979439 -873.927870 808.982139 877.717323 679.621461 438.692486 245.040685 117.581940 45.314160 9.892497 -4.523252 -8.614524 -8.463333 -7.030475 -5.510010 -4.251241 -3.275942 -2.520059 -1.922419 -1.443727 -1.061573 -0.761801 -0.532773 -0.363045 -0.241170 -0.156324 -0.098980 -0.061289 -0.037157 -0.022079 -0.012873 -0.007371 -0.004148 -0.002297 -0.001252 -0.000672 -0.000356 -0.000186 -0.000095 -0.000048 -0.000022 3872.003099 1306.439178 -183.203960 -691.915105 -967.374436 -1003.938076 -1035.884331 -1048.013861 -1304.728636 -1674.568126 -770.416136 177.134631 729.757480 821.470610 661.834347 442.542309 256.159066 128.440348 53.252110 14.765772 -1.935908 -7.436188 -8.029360 -6.931341 -5.531834 -4.300266 -3.320191 -2.553706 -1.947779 -1.463924 -1.078525 -0.776283 -0.544967 -0.372987 -0.248963 -0.162193 -0.103233 -0.064264 -0.039170 -0.023401 -0.013717 -0.007896 -0.004468 -0.002487 -0.001363 -0.000735 -0.000391 -0.000205 -0.000106 -0.000054 -0.000026 -0.307628 -0.214831 -0.279500 -0.198637 -0.183681 -0.147170 -0.094798 -0.092088 -0.051850 -0.052900 -0.028537 -0.029568 -0.015632 -0.016286 -0.008495 -0.008873 -0.004576 -0.004789 -0.002443 -0.002561 -0.001294 -0.001358 -0.000679 -0.000714 -0.000354 -0.000372 -0.000183 -0.000193 -0.000094 -0.000099 -0.000048 -0.000050 -0.000024 -0.000025 -0.000012 -0.000013 -0.000006 -0.000006 -0.000003 -0.000003 -0.000001 -0.000002 -0.000001 -0.000001 -0.000000 -0.000000 -0.000000 -0.000000 -0.000000 -0.000000 -0.000000 -0.000000 -0.000000 -0.000000 -0.000000 -0.000000 -0.000000 -0.000000 -0.000000 -0.000000 -0.000000 -0.000000 -0.000000 -0.000000 -0.000000 -0.000000 -0.000000 -0.000000 0.000000 0.000000 0.000000 0.000000 0.000000 0.000000 0.000000 0.000000 0.000000 0.000000 0.000000 0.000000 0.000000 0.000000 0.000000 0.000000 0.000000 0.000000 0.000000 0.000000 0.000000 0.000000 0.000000 0.000000 0.000000 0.000000 0.000000 0.000000 0.000000 0.000000 0.000000 0.000000 0.000000 0.000000 0.000000 0.000000 0.000000 0.000000 0.000000 0.000000 0.000000 0.000000 0.000000 0.000000 0.000000 0.000000 0.000000 0.000000 0.000000 0.000000 0.000000 0.000000 0.000000 0.000000 0.000000 0.000000 0.000000 0.000000 0.000000 0.000000 0.000000 0.000000 0.000000 0.000000 0.000000 0.000000 0.000000 0.000000 0.000000 0.000000 0.000000 0.000000 0.000000 0.000000 0.000000 0.000000 0.000000 0.000000 0.000000 0.000000 0.000000 0.000000 0.000000 0.000000 0.000000 0.000000 0.000000 0.000000 0.000000 0.000000 0.000000 0.000000 0.000000 0.000000 0.000000 0.000000 0.000000 0.000000 0.000000 0.000000 0.000000 0.000000 0.000000 0.000000 0.000000 0.000000 0.000000 0.000000 0.000000 0.000000 0.000000 0.000000 0.000000 0.000000 0.000000 0.000000 0.000000 0.000000 0.000000 0.000000 -0.000000 -0.000000 -0.000000 -0.000000 -0.000000 -0.000000 -0.000000 -0.000000 -0.000000 -0.000000 -0.000000 -0.000000 -0.000001 -0.000001 -0.000002 -0.000002 -0.000005 -0.000004 -0.000010 -0.000006 -0.000013 -0.000008 42158.427751 41079.041228 35687.455833 34375.337612 33971.399544 30675.829863 33912.129938 26549.562083 27130.627175 19805.276169 18901.673014 35650.011539 35750.331029 37142.430245 37250.914551 34380.348705 35792.498238 32691.538713 28872.501832 26162.312024 25504.460107 21599.723601 40996.617502 36953.828369 35445.004170 32516.634608 33562.906030 30061.164059 30751.940649 23440.518007 24842.018843 21659.777715 23385.690450 39178.526927 42090.068753 33339.561721 39075.765122 34746.415256 36520.802001 32735.505670 29179.253765 28642.287375 26077.487118 22277.240093 37219.185390 40037.872509 40614.780363 34477.076022 34522.540415 28055.843677 29778.529976 26245.935214 23077.450441 26217.817085 23320.345265 38209.051198 38858.131917 37187.608612 36405.167600 30285.083906 33498.764899 33209.040223 29097.948450 23415.083057 23875.654514 20124.533569 37501.480645 33993.820570 32495.436066 33631.107611 31898.685549 28408.581634 24110.079661 26139.268913 26975.387646 25835.135436 17144.396201 35501.899655 35941.948961 32489.963173 33236.422843 29547.549848 29133.655050 25884.283196 24433.872835 20440.352283 21693.731221 23640.980233 38069.322599 32346.751160 33504.408739 33862.710714 34859.955489 28861.945116 27138.147504 27985.287586 25435.776457 21048.750011 17630.882586 31238.095491 31921.459424 28247.428213 27170.144300 28178.034378 25873.540305 25195.245126 26143.630871 25314.842053 23322.431315 20075.481751 37116.162641 31365.734346 31570.309627 29132.304350 30175.343637 27143.884604 26907.932138 23693.295073 21051.075314 20529.902473 21471.923596 25031.481000 26608.350657 29346.196312 28923.621402 28680.033970 26582.117072 26674.424889 28843.552801 20552.885997 20482.042260 19743.684690 29007.299795 28542.286828 29725.130546 26798.480977 28307.622783 25073.904352 24938.914057 23707.229511 21068.911296 19279.139396 13106.778980 26854.728339 27634.089153 27334.388651 28076.339976 26898.885751 24993.302319 25058.034046 25538.879708 19575.984964 16764.532049 10071.040807 25432.785958 29305.189273 27810.888325 26327.120699 26621.370369 27338.992470 23690.792106 21259.076916 12942.016647 12719.588552 9121.002142 26925.904730 29517.291812 24075.865177 29058.817782 22722.961866 22749.053705 20293.591337 17545.316992 10241.048312 7037.179852 -6049.497684 26168.864657 27676.466695 24744.991720 27689.650432 22443.727616 26131.491764 20486.197647 8937.260985 7168.094793 -1796.603301 2460.937686 24677.644286 27113.375562 25940.000577 24789.818736 24912.102423 22549.633545 15385.026094 14440.509374 11532.061185 4429.670948 -8987.734769 25423.483404 28105.410049 26063.872709 26434.085122 24109.925777 24195.411370 16931.865763 8741.918706 11531.335189 6932.399420 -6715.006756 25939.758779 29100.383394 25154.308521 28167.963943 23078.145560 23493.788499 23035.013259 16095.009857 4004.755801 1915.890608 -862.017993 26341.162481 29148.738401 27187.254319 25725.768142 25959.034014 13268.028222 14643.892349 6194.783372 7747.128158 4602.989710 547.983502 26948.333324 27750.056095 28376.437073 24350.429260 25829.705526 22169.244388 13053.726973 5672.611343 11618.232832 2203.335951 -853.047070 27308.370337 27417.775477 27520.450252 25409.250919 23019.151372 24032.875011 12287.286827 17352.721998 11909.327584 2996.087506 -800.013487 27072.839674 28190.599956 26533.915707 25786.649783 21093.451063 22597.115197 17876.668717 10362.586548 5605.905489 -3416.319099 -5876.021860 27602.122282 28933.104797 25877.958286 26003.900934 21917.923329 19587.277614 17763.743689 15149.751459 7808.030405 2212.732666 5305.808129 28768.753580 28569.185812 26104.824083 26210.410286 21978.977230 20837.108472 15252.969345 15287.214370 8664.579942 5366.029567 4564.531158 29108.021753 28203.554378 26114.277802 25990.555904 21353.399565 21609.274628 14298.545395 14553.094040 10689.867332 6663.847157 1720.450707 29484.990532 28913.757244 26097.386914 25388.230897 21490.291601 20213.977699 17131.311655 11293.992646 12018.671105 8677.679382 6368.348599 30871.824328 29368.405062 26782.471965 24510.576062 23142.368608 17477.059942 19479.352249 10290.552315 12774.764939 5474.808438 12029.764435 32448.384819 29273.604566 27758.636772 23800.558087 23845.411928 16971.623728 19131.990268 12441.023374 11110.859474 8433.397159 -5289.609721 33517.149261 28771.244759 28759.608022 23917.848904 23464.260640 17841.164353 17386.678909 15003.869823 8336.526700 9090.055207 8838.392114 34220.018044 29110.883119 28944.240186 24860.473042 22589.441732 19332.711834 15059.381523 16488.841254 3477.493632 10346.787936 4960.341618 35086.883303 30411.229905 28831.505569 25773.798163 22139.399607 20453.757848 13546.549877 17181.790347 315.150489 12102.677784 6492.337803 35865.899823 31307.730679 29099.515808 26479.246745 21995.366417 21082.113389 13392.674204 17033.526259 1883.389879 12169.534132 6319.686503 35231.340837 31393.228032 29392.001525 27047.040922 22387.782207 20960.285234 14279.519081 15742.412640 5128.084014 8012.671985 5968.706236 34693.843626 31481.038851 29511.958375 27320.219840 23010.365797 20620.941944 15208.801973 14238.222370 7382.174914 4114.229001 5390.132759 35282.323222 31921.100118 29790.804255 27317.722208 23486.827347 20211.539301 15966.572920 12717.252596 8745.313922 2574.779143 5694.555144 36216.616016 32023.426651 30289.122027 27159.564485 23716.021460 19860.385370 16349.578118 11893.975197 9892.269943 2341.367242 7397.562485 36168.216585 31428.826990 30775.806536 26969.738299 23695.777542 19993.729324 16315.727554 11638.870175 10669.497616 2071.740191 9390.169770 35792.918035 31242.179220 31066.163771 26894.243331 23533.321167 20104.003655 15839.357944 11703.632835 10483.272509 2013.027481 10886.281178 36146.682743 31355.905165 31221.697214 26986.633923 23316.058120 20255.128539 15521.916608 11929.130542 10053.403676 2600.230898 10751.958990 36912.959687 31625.949738 31325.645398 27199.615576 23080.585865 20419.019904 15277.327681 12160.020305 9671.789295 3415.489563 9050.560541 37507.613856 31927.424567 31348.349969 27493.791984 22873.077364 20607.544022 15323.616113 12435.834391 9578.492796 4056.266239 7168.906904 37788.619918 32229.531405 31235.904120 27784.830682 22783.179398 20566.894749 15585.090546 12549.217046 9622.025712 4379.784767 5858.353550 37796.824995 32499.915088 31033.619388 28011.543353 22834.625641 20607.341581 15950.373795 12494.023868 9617.978868 4456.685464 5092.032143 37570.986354 32780.530697 30860.302641 28206.772071 23102.634344 20583.640348 16363.090184 12365.005953 9566.226025 4423.789562 4684.244360 37226.416742 33108.193248 30823.976275 28396.104648 23624.474916 20643.104963 16906.640295 12400.938981 9904.448857 4487.345586 4537.902779 36802.418264 33481.264655 30998.212586 28582.869808 24361.601337 20818.391546 17565.223649 12704.305492 10285.094103 4730.255735 4542.571346 36364.274294 33841.392957 31373.351821 28723.820721 25195.457119 21063.949526 18245.753078 13131.053295 10445.886396 5016.183235 4531.568861 35941.637150 34082.807091 31849.656168 28735.760518 25930.157141 21263.432275 18788.272160 13479.362488 10662.607608 5450.489477 4484.620158 35585.675210 34154.313611 32288.700574 28564.895858 26377.761112 21289.169307 19038.139312 13667.295606 10738.091111 5667.357159 4419.801983 35276.219758 34010.028963 32496.509208 28189.739378 26450.014254 21076.852279 18921.744785 13639.859497 10622.710690 5766.174485 4293.352578 34918.569034 33531.597761 32441.364970 27607.948489 26155.845502 20663.236724 18481.904855 13409.459893 10326.659222 5717.738001 4100.041617 34768.618878 33014.230378 32232.411163 26923.557958 25598.273976 20146.573001 17847.805245 13055.126891 9920.095153 5561.804480 3874.722162 34572.178080 32374.737930 31866.328515 26257.928737 24921.926397 19621.825652 17162.042542 12671.511717 9485.657907 5360.424251 3656.713693 34257.128863 31647.621488 31393.864989 25651.140372 24224.027397 19150.632101 16523.338683 12322.878184 9084.063703 5163.998996 3471.155332 33838.974007 30859.508268 30800.481330 25073.069732 23539.065580 18741.305523 15959.166362 12022.991215 8737.801894 4995.391049 3323.345469 33227.970177 29961.220583 30077.075431 24486.158446 22850.225917 18351.774437 15444.988904 11747.006007 8435.412219 4851.152110 3203.356067 32476.008386 29001.670639 29243.987100 23850.794488 22118.496691 17925.122728 14936.796089 11455.978234 8149.938300 4713.848934 3095.226888 31550.328955 27977.549719 28297.642249 23134.422942 21322.656344 17428.321293 14399.541788 11119.998749 7856.951234 4565.240028 2985.404577 30601.956712 26911.282130 27289.886111 22361.014325 20471.214242 16858.852605 13823.449379 10731.107675 7545.205222 4395.547133 2867.205005 29678.489110 25863.414657 26260.956792 21571.589147 19596.576692 16238.779978 13223.347057 10302.096496 7217.850508 4205.986812 2740.896623 28829.512366 24897.217694 25253.632693 20796.587196 18740.035514 15604.899260 12627.755635 9858.033405 6887.034895 4005.381786 2611.283515 28006.161105 24005.149275 24309.782535 20065.037982 17938.527827 14990.037732 12062.073383 9424.745705 6567.156310 3805.177985 2484.512084 27232.309855 23204.172544 23438.745665 19388.243810 17212.895451 14417.209115 11543.486059 9020.320359 6269.116246 3615.270507 2365.480278 26498.308182 22486.387444 22642.597629 18768.290068 16564.213596 13892.971321 11079.171323 8653.231846 5998.158520 3441.904841 2256.697776 25778.325336 21845.642327 21914.425882 18202.494867 15989.578728 13415.128623 10666.868177 8324.327781 5754.581951 3287.180866 2158.651956 25081.813991 21278.728900 21241.214266 17680.654804 15478.513036 12980.082095 10299.124034 8029.375157 5536.502558 3150.295188 2070.353781 24408.791163 20765.953529 20625.204885 17203.129441 15020.339982 12583.705669 9969.751087 7761.877457 5340.421797 3030.004140 1989.985789 23779.924222 20310.756594 20058.467804 16765.837914 14612.366896 12219.782039 9674.019808 7518.794273 5161.829582 2924.301296 1916.273916 23197.860039 19907.077886 19542.509958 16362.539811 14248.234668 11883.910862 9406.281781 7298.504532 4998.783406 2830.188650 1848.556276 22683.953601 19544.178248 19093.699036 16005.779866 13926.985493 11580.121169 9167.189493 7098.814495 4851.692658 2746.703827 1786.041693 22266.848380 19239.701403 18702.888599 15690.236510 13643.029912 11309.401430 8956.314769 6918.909726 4720.237216 2674.110183 1728.754964 21905.928355 18994.580451 18392.402405 15433.184627 13405.596396 11081.819633 8779.515098 6765.548793 4608.640589 2613.705393 1678.100840 21651.944107 18797.118599 18152.652385 15227.698504 13212.985548 10899.364316 8637.057430 6639.602157 4518.594832 2567.562022 1635.910508 21463.293998 18652.383125 17980.259988 15068.196146 13069.442386 10765.698082 8534.312465 6548.917426 4453.677938 2537.561608 1604.499567 21330.063222 18522.496512 17869.336823 14955.747094 12979.605889 10678.101350 8466.053206 6490.302386 4413.335932 2522.989654 1584.973383 21231.173369 18419.147954 17776.174889 14843.984273 12900.873886 10612.730143 8421.335332 6452.532702 4386.853459 2518.426541 1573.843619 21155.998166 18328.824369 17727.028636 14779.010508 12858.083313 10568.126125 8394.905110 6433.525047 4370.181464 2519.477793 1568.975744 21011.058804 18174.812349 17603.538062 14641.724416 12775.751769 10498.966641 8347.779776 6397.964011 4337.947722 2505.061780 1561.526442 20894.685977 18095.051147 17558.897537 14540.624391 12694.640338 10417.888293 8284.467517 6352.057177 4301.909370 2483.699035 1546.240398 20585.457591 17769.708128 17293.986269 14309.206193 12548.533784 10285.066374 8178.582128 6264.100807 4222.847335 2428.744892 1516.632494 20386.614180 17649.349604 17141.621402 14081.931458 12357.580313 10093.690121 8017.546296 6144.565293 4135.879178 2369.050691 1468.245251 19864.370866 17153.087908 16705.986787 13739.106567 12090.452737 9846.293916 7818.203084 5983.288070 4004.707708 2282.291627 1418.685378 19462.751217 16797.547110 16264.823903 13292.915535 11718.426022 9526.116537 7542.224863 5770.476898 3858.810188 2173.857963 1330.074102 18776.703642 16296.968713 15802.793152 12863.465410 11283.862609 9105.026879 7192.893343 5494.652260 3682.707735 2099.717263 1277.440671 17967.132753 15423.461607 14903.842294 12152.712917 10750.440797 8684.130779 6884.301462 5233.531854 3448.320037 1886.032182 1158.893244 17430.114420 15257.639092 14561.051394 11690.480053 10149.315236 8094.529213 6301.705365 4768.601637 3275.138741 1893.708486 1085.934867 16234.234923 13786.215610 13343.810006 10828.414679 9553.383778 7656.884993 6069.131589 4539.303702 2899.539364 1513.837188 1001.738365 15840.901080 13916.604936 13051.999846 10366.887179 8906.625687 6880.672674 5286.852916 4038.203063 2790.195860 1663.251301 806.884962 14640.868286 12310.538600 11833.887316 9532.467902 8100.546445 6763.517369 5154.733882 3649.907948 2319.926186 1186.620038 879.109701 14300.365843 12435.955831 11240.377816 9145.071661 7639.174871 5525.833559 4405.726406 3327.089407 2517.056987 1237.961954 634.516025 13420.163240 11059.851013 10670.587483 7893.470323 7398.277888 5762.385315 4454.803451 2999.977746 1378.660809 1478.281585 495.371884 12998.616473 11008.703128 9992.355279 7784.186979 5751.379717 5049.921188 3069.172304 3231.533042 2170.287172 714.890321 757.556650 12878.680960 10222.002144 10486.461593 7947.385670 6562.919294 5411.511570 3278.003548 1601.997154 1927.738471 498.820464 649.914699 12270.055050 10587.911826 8279.065409 8146.677490 4480.693774 5047.436435 4223.571674 1945.319028 1859.186898 938.912959 396.127381 13869.551269 9244.848718 8455.228972 5950.288060 5521.815562 2982.976711 3447.952925 1663.143609 1001.971854 452.712957 385.759466 7922.785583 11048.045784 7675.599190 6148.360098 4798.443962 3048.291868 3029.198057 1415.209939 1550.370632 554.616948 213.166862 11145.098627 8917.276422 7685.394048 6340.239124 4902.420196 3152.692086 1221.632096 1157.080486 1142.090181 -85.007866 523.231661 8446.523284 7728.436634 3451.576168 5592.712651 2448.691507 2996.874568 1137.910940 1273.835679 -1250.256709 -622.328425 48.449464 5948.737818 7839.446422 7468.331953 2643.593456 4136.420494 2108.323908 2321.794683 828.599862 753.244347 2508.264375 149.625724 15632.548165 14615.961150 12833.531710 11459.757231 9712.649733 8938.853000 8102.918218 6586.589582 5766.057922 4946.830911 2882.506645 1617.509342 2594.581572 -2622.637063 21317.369717 18870.422483 16097.937351 15557.094738 13703.668800 12252.187600 11381.650273 8906.285415 6344.493689 3796.439814 4984.095793 1979.736658 1410.170529 4131.490846 20632.330819 19163.733257 17657.724123 15824.635078 14733.075981 11975.316047 10094.752939 7513.329591 6854.944924 4341.018035 2500.339005 2840.260412 -116.680327 776.311964 20354.903112 18044.892327 15557.517116 13477.930551 12573.561968 10882.090591 9539.859928 8239.485150 6168.459425 4963.959444 3765.054883 2917.676223 1265.559487 867.373082 20757.158473 18645.163925 17930.276330 16356.753965 14779.572504 12651.514418 10542.685325 8711.378822 7355.206776 5165.720920 2878.034093 2172.775924 858.556763 354.832747 23233.275476 17471.632756 20211.959419 13827.583158 11540.408820 12003.706234 10741.703436 8992.512423 7486.431722 5643.150543 4400.276941 3373.526798 1629.097331 831.733621 19693.173371 16389.679625 12064.983725 13265.023202 12022.204396 10424.529347 10052.354954 9678.720677 8345.423441 6810.696672 4568.973136 2897.282541 1185.212153 780.655574 19927.123114 13159.605196 18817.526565 14983.515564 12600.803169 12660.800968 12392.622933 9641.267388 8205.625882 6565.855229 5189.876744 4052.758588 1634.462777 1202.928921 19908.754754 18975.294359 12615.794665 15940.636998 12967.581886 12474.618420 10223.580225 9703.979468 7241.948193 6820.688324 6220.987391 3651.091883 1245.401158 1098.693476 19881.945388 13212.244657 15342.745205 15229.349369 14220.930675 12016.981130 11230.190836 9513.050453 7913.709425 7668.950501 5927.916391 3761.973418 1528.431426 1603.629539 19267.247871 16703.823053 14584.571714 12898.509089 13061.931131 12283.234063 11158.620512 9508.123056 8986.495539 8858.276585 6626.465263 3890.257518 1529.930857 1917.291456 19468.761845 9748.999363 13516.806391 12821.490684 7909.803112 9820.991994 2385.120342 7518.152354 6771.151212 4224.475494 4891.763201 1683.905954 -135.966289 2046.606903 11776.969743 9602.582692 -598.740713 8388.390533 4077.815033 10356.477331 9278.150029 9302.455660 3766.869024 4519.672533 6203.916999 2987.082412 975.199072 2779.245515 3592.692776 9069.509828 -683.086859 11781.162686 9488.384415 993.889624 5562.323301 9071.740198 3102.667063 5607.094845 3540.761650 516.305384 4969.749279 1202.773773 -18.119187 -2531.337637 5443.355301 -5045.665219 6096.088395 95.877167 -3370.965367 1090.883120 4126.098250 4287.963531 3497.274674 4864.901074 5060.188778 -74.455640
</DataArray>
<DataArray type="Float64" Name="Velocity" NumberOfComponents="3" format="ascii">