<VTKFile type="PolyData">
<PolyData>
<Piece NumberOfPoints="1945" NumberOfVerts="1945" NumberOfLines="0" NumberOfStrips="0" NumberOfPolys="0">
<PointData>
<DataArray type="Float64" Name="Pressure" format="ascii">
 56894.157653 56058.471467 55956.354796 51037.915846 61616.656033 56924.213900 59500.198363 58402.120121 54036.749015 53595.527788 53399.070778 51371.689238 54092.263465 55145.145932 54619.048728 54175.299751 53847.898745 54253.912473 50561.548833 53225.444038 43251.296281 40060.233806 50688.130600 52723.976893 47376.694083 48198.515306 42340.687341 40125.327780 48883.896201 48360.298009 42444.848181 36962.349089 46086.603558 42759.823488 50783.233217 48019.779254 39300.882752 33270.532858 42948.664078 40266.837252 37034.930998 33399.944931 36929.325437 37178.680284 35362.619436 38727.786176 31566.487275 34032.328548 30960.687124 33702.679249 29423.029209 31255.421682 29392.558684 31906.387124 28631.399081 31420.763715 27031.238999 28791.968547 25684.079312 27347.096698 24602.173095 27233.170165 23850.335461 26685.667093 22939.668710 25559.969621 22010.657848 24717.391440 21181.789944 24254.896173 20328.645332 23490.160942 19345.237537 22431.718396 18236.520924 21115.201169 17251.684896 19634.224058 16535.658844 18400.130123 16083.501256 17871.044009 15800.725934 17857.387250 15479.662923 18070.465466 15045.763741 18442.208548 14426.044391 18879.226759 13585.665238 19224.993837 12538.080041 19303.626360 11331.800469 18992.598004 10042.211604 18194.253744 8753.865704 16943.831696 7521.453197 15497.365643 6437.137107 13808.694620 5536.527508 12140.021557 4833.457163 10624.973085 4317.059096 9338.928627 3966.347312 8297.276282 3759.152071 7503.014696 3673.830073 6903.540410 3695.407149 6454.733691 3815.716315 6151.545808 4025.852100 5970.873347 4316.579338 5892.346442 4678.202222 5903.287587 5097.158921 5990.571393 5558.662824 6148.703109 6044.154332 6371.642582 6533.489084 6650.800456 7017.761443 6991.715396 7485.656284 7380.808193 7925.270855 7802.908908 8331.540705 8248.578773 8702.086627 8704.745733 9038.518477 9154.424953 9344.014847 9575.500383 9620.838205 9948.224938 9868.053111 10241.768572 10076.202500 10431.350548 10243.507444 10527.263981 10370.305119 10535.235400 10456.305587 10476.260168 10507.365443 10351.161721 10521.010602 10180.259201 10495.428647 9969.840393 10447.768843 9790.902815 10385.113544 9621.570261 10327.645334 9479.823836 10273.994388 9393.599577 10229.447112 9253.267583 10227.866396 9265.588211 10215.087487 9070.150821 10265.524253 9093.143398 10245.468316 8783.307728 10327.596010 8680.391803 10301.746831 8416.559171 10177.561217 7737.377558 10169.082493 7144.873525 10175.748623 6801.175625 9423.879353 6529.446549 7511.700045 4472.002440 6182.485513 3449.498492 3883.790187 1368.944441 1681.041607 1575.337133 -1849.596572 -3897.944738 1375.926289 -3263.630413 7002.335523 4323.164928 57657.685087 57008.196867 57440.950131 55557.383557 46039.243651 40455.155824 36126.355643 33258.441514 29959.117874 27407.187501 25145.039221 23384.722194 21137.878289 18449.186676 14358.271729 10388.354578 10771.317491 6345.212732 -1362.937579 -3798.919882 -2353.443008 -6076.472545 -9020.088400 -7534.220225 -6070.106876 -4909.131442 -3978.685284 -3219.555722 -2592.685197 -2070.253298 -1633.569998 -1270.175038 -971.100089 -728.910408 -536.610439 -387.229855 -273.840249 -189.778796 -128.915096 -85.863113 -56.096590 -35.966536 -22.641903 -14.002496 -8.511381 -5.087491 -2.991310 -1.729804 -0.981883 -0.543199 -0.291176 51722.146685 56853.797385 55704.470230 54619.322316 46811.263855 42571.359098 37275.400418 35250.458927 30052.423169 25396.448822 20491.538546 18652.847480 15376.272413 14228.691183 12267.505037 8522.777549 12882.572287 -2055.759960 -7697.959158 -3638.073792 -1341.759018 -7445.863405 -10672.738604 -7618.601408 -6062.927974 -4946.800733 -4015.374222 -3249.308499 -2616.162919 -2089.187633 -1649.396339 -1283.800391 -982.995476 -739.274634 -545.514187 -394.714127 -279.969683 -194.660083 -132.693052 -88.705713 -58.177443 -37.449975 -23.672958 -14.701963 -8.975043 -5.388107 -3.182076 -1.848248 -1.053340 -0.582045 -0.291233 -2407.276932 -4029.043495 -4713.885319 -4228.900910 -2964.672714 -2088.298619 -2041.706991 -1336.449582 -1448.455284 -3733.627611 -837.905984 2524.689468 1774.027526 1152.303445 631.554742 289.946263 101.996255 15.508514 -15.335228 -20.844172 -17.511226 -12.704471 -8.880093 -6.351504 -4.761546 -3.708520 -2.928065 -2.290789 -1.750434 -1.297277 -0.930364 -0.645795 -0.434459 -0.283793 -0.180336 -0.111684 -0.067525 -0.039919 -0.023107 -0.013112 -0.007303 -0.003996 -0.002150 -0.001139 -0.000594 -0.000305 -0.000155 -0.000077 -0.000038 -0.000018 -0.000008 3459.058761 2816.907629 2944.553869 3369.896067 3307.807045 2827.415713 1961.543156 1206.165418 470.870109 158.521403 1338.597877 1930.418537 1691.636497 1150.042273 658.717114 319.255005 123.688031 28.538220 -8.776508 -18.158894 -16.750673 -12.710158 -9.085875 -6.540184 -4.883402 -3.775477 -2.963790 -2.313070 -1.768541 -1.314420 -0.946710 -0.660552 -0.446925 -0.293688 -0.187771 -0.117009 -0.071183 -0.042341 -0.024658 -0.014078 -0.007887 -0.004341 -0.002350 -0.001251 -0.000656 -0.000339 -0.000173 -0.000087 -0.000043 -0.000021 -0.000010 -0.163502 -0.110552 -0.148731 -0.102554 -0.095882 -0.075193 -0.047569 -0.046036 -0.025142 -0.025698 -0.013393 -0.013933 -0.007107 -0.007439 -0.003742 -0.003929 -0.001954 -0.002055 -0.001011 -0.001065 -0.000519 -0.000547 -0.000264 -0.000279 -0.000133 -0.000141 -0.000067 -0.000071 -0.000033 -0.000035 -0.000016 -0.000017 -0.000008 -0.000009 -0.000004 -0.000004 -0.000002 -0.000002 -0.000001 -0.000001 -0.000000 -0.000000 -0.000000 -0.000000 -0.000000 -0.000000 -0.000000 -0.000000 -0.000000 -0.000000 -0.000000 -0.000000 -0.000000 -0.000000 -0.000000 -0.000000 -0.000000 -0.000000 -0.000000 -0.000000 -0.000000 -0.000000 -0.000000 -0.000000 0.000000 0.000000 0.000000 0.000000 0.000000 0.000000 0.000000 0.000000 0.000000 0.000000 0.000000 0.000000 0.000000 0.000000 0.000000 0.000000 0.000000 0.000000 0.000000 0.000000 0.000000 0.000000 0.000000 0.000000 0.000000 0.000000 0.000000 0.000000 0.000000 0.000000 0.000000 0.000000 0.000000 0.000000 0.000000 0.000000 0.000000 0.000000 0.000000 0.000000 0.000000 0.000000 0.000000 0.000000 0.000000 0.000000 0.000000 0.000000 0.000000 0.000000 0.000000 0.000000 0.000000 0.000000 0.000000 0.000000 0.000000 0.000000 0.000000 0.000000 0.000000 0.000000 0.000000 0.000000 0.000000 0.000000 0.000000 0.000000 0.000000 0.000000 0.000000 0.000000 0.000000 0.000000 0.000000 0.000000 0.000000 0.000000 0.000000 0.000000 0.000000 0.000000 0.000000 0.000000 0.000000 0.000000 0.000000 0.000000 0.000000 0.000000 0.000000 0.000000 0.000000 0.000000 0.000000 0.000000 0.000000 0.000000 0.000000 0.000000 0.000000 0.000000 0.000000 0.000000 0.000000 0.000000 0.000000 0.000000 0.000000 0.000000 0.000000 0.000000 0.000000 0.000000 0.000000 0.000000 0.000000 0.000000 0.000000 0.000000 0.000000 0.000000 0.000000 0.000000 0.000000 0.000000 0.000000 -0.000000 -0.000000 -0.000000 -0.000000 -0.000000 -0.000000 -0.000000 -0.000000 -0.000000 -0.000000 -0.000000 -0.000001 -0.000001 -0.000002 -0.000001 -0.000004 -0.000002 -0.000005 -0.000003 52939.014668 44436.079511 54153.741497 53195.356306 54331.754685 48464.256176 49212.997034 44559.438550 45370.460409 41328.645913 39250.284014 57940.627570 50636.701819 53056.215474 50405.727530 49563.040338 49250.458925 45955.800013 46471.362108 43411.215477 43063.143370 40645.818195 52366.207361 49596.308988 51128.719192 57300.366256 50895.164714 52980.878923 51479.486470 44073.845107 45480.621017 42203.529595 39749.553405 54431.887103 51689.385621 47033.841088 55104.370568 44673.911406 46077.962368 44739.729387 42559.707879 38658.909144 37259.590562 35432.383708 53618.413552 47132.127243 47687.160795 48211.030849 45866.109724 42934.641257 43307.486887 40520.652329 41075.889513 38755.998052 36906.315314 45028.773210 45238.819140 42366.720640 44110.287301 46238.662807 41835.950389 39527.568774 40950.666076 42646.477012 35749.958457 36090.890255 49723.118713 53293.293942 53790.906382 47057.430043 45976.040096 46134.650509 40924.853579 38043.605871 33864.216803 34407.933712 39525.273355 40632.570958 40684.516354 42325.189650 41811.174099 43490.569927 39842.470451 40392.789722 40530.977307 40067.131867 34983.957967 26685.232526 44318.981030 46247.585132 46662.223946 43349.015021 41399.415099 41373.700570 40609.931572 36490.810974 34713.912836 37229.276832 38708.251593 39348.722464 41075.376474 37932.943519 38922.668813 40532.265122 36589.080509 33910.654596 34687.962942 33114.774720 28845.283652 27538.981767 41528.592322 41804.293143 42314.020310 38684.461744 35579.182459 36945.507174 37873.144966 30893.311607 31349.376285 29118.225704 20871.427713 35284.071316 37751.885898 34770.353365 34412.662612 36924.358741 33717.109968 30841.937405 27546.332024 27890.920431 28644.928740 12376.263099 35213.528020 38743.478836 36341.051678 34909.691000 32842.988269 27561.236910 28495.942130 24686.700804 22723.621227 18971.414446 10974.404918 33970.005773 38080.956550 33287.441507 32553.478749 32923.834984 28438.788318 22265.563791 22182.756488 18588.197080 16321.388229 8227.289664 36340.043154 34435.573367 33898.403131 30954.998769 29801.049801 23385.781663 21037.322528 17590.326837 12506.460030 15184.216524 9639.047048 32934.281688 33536.633308 33423.930156 28626.088676 27766.715818 21269.537571 20073.015681 8703.094707 9521.048398 3539.278778 -1863.480868 33193.521941 32650.075828 31809.082845 27344.991227 29622.386124 17155.048437 24826.998792 15836.923435 5437.419404 -6884.864272 -15416.152541 33323.353313 32789.126058 28548.029870 28936.520127 22321.089459 19039.520129 10817.801094 11333.969010 12798.394800 11149.681551 -13925.570895 32669.320409 31112.754410 28996.815994 28273.678449 22149.016547 20602.723313 15180.617098 10259.513492 8406.894964 4750.427251 -17203.013355 32876.389835 30031.860734 29867.070813 23938.277092 23265.968788 13551.561190 10036.847186 12999.034318 4745.799809 -1427.844105 -11908.668893 33099.602595 29982.510384 28722.492611 24445.956208 20003.642377 21329.339008 7904.377477 7515.677377 5310.266223 -1772.215057 -6665.161659 32377.022914 29728.994934 26627.559707 25925.836000 15521.253746 19684.083519 13746.320213 6804.325413 7502.161487 3701.972699 14626.334933 31688.628069 28346.789775 26138.046160 24425.261365 17367.940168 14794.261808 13048.200603 2222.235271 1641.505651 -2973.740418 9017.817870 30349.464981 27350.249661 26071.772115 22409.332840 19615.104964 12714.572926 12224.191352 8229.245900 5869.001125 2683.751248 5374.885703 28869.376756 27211.087916 25158.134993 21779.047086 19449.826828 14200.515948 11660.329361 6655.352777 5903.188581 2251.129952 8885.377219 28125.285265 26827.089382 24162.579781 21513.890196 18311.217607 13750.745615 10728.248091 6436.207147 6331.490592 5640.227300 2492.389996 27375.076463 25654.568548 23412.910004 20624.334253 18372.191024 12568.196256 12514.718969 7195.551310 6559.206634 6774.101789 3050.163479 26183.751713 24192.657517 22880.635632 19280.149330 18317.923727 12312.179040 12158.946377 6102.008440 5820.200087 8537.218705 851.355072 25513.205464 23139.003328 22067.021592 18403.816180 17241.904111 12662.566879 10925.230200 8195.495742 5651.211684 8028.416930 4567.774434 25228.221057 22702.191059 20969.765623 18399.305477 15632.328124 13296.485017 9228.718312 10481.813386 2704.167251 8602.891621 -409.862471 24844.553808 22141.176079 20134.058071 18228.042235 14405.021044 13920.309419 8032.592461 11216.049219 31.218319 9709.902720 3094.694899 24164.330953 21168.904201 19588.767094 17807.524586 13569.809812 13980.624865 7883.349756 10511.864445 1250.112532 8695.286558 5084.039111 23121.399558 20235.354112 18993.280568 17353.359345 13286.956200 13387.001988 8486.204267 9555.527443 3864.992562 4999.514870 6308.308156 22558.810867 19613.614218 18415.526063 16825.681952 13405.603237 12765.596566 9025.572251 8297.157205 5596.175753 2071.855943 7881.647090 22344.831371 19104.503220 18001.419527 16286.953100 13578.668361 12339.573716 9592.171359 7493.919096 6999.532113 1327.744129 11044.771757 21730.210914 18342.894134 17653.647936 15836.503537 13695.395452 12063.334900 9971.892403 7219.424532 8239.663203 1141.279611 13936.014476 20555.235762 17513.973046 17200.483194 15457.374741 13739.913338 11875.571942 10083.075027 7286.882077 8652.422313 882.216901 15050.975321 19499.327193 17043.215694 16679.634152 15058.135921 13680.498506 11699.951172 10117.755980 7503.905140 8165.940826 1124.491613 13959.173670 18734.175083 16708.755489 16254.217656 14598.861723 13549.368127 11436.591915 10115.452819 7645.256615 7300.275798 1917.712574 10800.988492 18205.762934 16379.680629 15934.912824 14060.649654 13391.292806 11149.495593 9913.573817 7608.691992 6473.447179 2630.672115 7379.316464 17591.329508 15956.636904 15696.372545 13456.696720 13173.565620 10841.424575 9782.796997 7643.808994 5930.536356 3044.896841 5150.916289 17060.768466 15505.481360 15512.602572 12801.382739 12851.274028 10473.845320 9501.679386 7443.686836 5659.264167 3306.137523 3878.138443 16645.182996 14963.048479 15313.973340 12083.596438 12353.366406 9997.007608 9038.434719 7142.776200 5454.096544 3403.307940 3093.281121 16290.487643 14242.147796 15008.669715 11329.910979 11642.690806 9354.693641 8334.155429 6655.706919 4995.803167 3260.921376 2470.566147 15990.716390 13370.528765 14508.511408 10571.048540 10768.156038 8587.017406 7437.351572 5966.157716 4421.306491 2997.375315 1909.903437 15689.623503 12479.284786 13820.671568 9844.259181 9828.107317 7783.633748 6482.118046 5202.568454 3745.042670 2533.926585 1417.177974 15283.365249 11614.998919 13016.142547 9190.803964 8937.246190 7061.075814 5622.368880 4512.877649 3085.548202 2073.622371 1029.860764 14600.618155 10743.577355 12138.540880 8615.444028 8165.175808 6493.317036 4955.420837 3996.722520 2554.743406 1713.864427 766.925973 13768.058836 9874.950160 11203.559450 8076.543351 7504.408812 6075.098547 4485.879177 3663.021156 2185.135536 1488.687524 620.771485 12802.578626 8988.987156 10227.780750 7522.224768 6890.613854 5733.519193 4148.997999 3456.206865 1955.546415 1385.523505 560.955241 11703.228531 8040.935398 9211.802855 6915.479979 6254.831097 5370.981796 3846.069057 3281.143588 1799.768224 1346.942036 539.015204 10571.028532 7079.429222 8171.210084 6243.323098 5566.100571 4923.625653 3501.646045 3059.282941 1650.967832 1310.003348 513.267882 9476.776790 6114.199440 7119.312042 5528.355550 4841.639185 4383.517106 3090.075551 2757.844372 1470.132268 1233.807540 461.148329 8471.030685 5333.938461 6106.914304 4822.271058 4130.722967 3793.524527 2635.265939 2391.844109 1252.929439 1108.124848 381.319753 7606.260598 4664.747356 5252.484620 4186.610734 3487.812504 3218.559891 2188.297788 2006.549607 1022.095287 949.105985 287.395659 6987.912790 4199.869878 4584.709846 3659.789417 2955.309064 2714.269720 1799.020388 1650.580348 808.758405 784.373296 197.502056 6472.595081 3861.075346 4073.354720 3253.594874 2552.087339 2312.210939 1497.751533 1357.629329 637.667914 639.182410 126.165761 6080.841931 3651.471205 3707.645141 2964.009809 2273.537158 2017.736903 1290.465414 1140.625184 520.214761 528.491581 80.293864 5790.353571 3544.526369 3459.144632 2766.504298 2098.836901 1818.947905 1166.168552 994.937244 454.662562 455.739065 59.409285 5575.581525 3516.223048 3308.424637 2640.894340 2002.092816 1696.281382 1106.763230 906.974068 431.430291 415.990474 58.498743 5423.028917 3545.412497 3238.276524 2575.753563 1964.803399 1631.307478 1094.799933 862.745011 439.150256 400.686072 71.242441 5334.755174 3632.701538 3237.096947 2562.560369 1979.585311 1613.864659 1119.185703 852.940200 468.827978 401.789290 92.366151 5313.420131 3780.742929 3306.355008 2600.903659 2045.096924 1641.800923 1176.102304 874.168958 515.882637 414.055194 118.706782 5366.353353 3983.318073 3444.277455 2696.104816 2163.745711 1718.863941 1266.717759 926.999600 579.671544 435.378965 149.190254 5499.303100 4239.875354 3649.835299 2854.189371 2337.162651 1848.403031 1393.960636 1013.595337 661.416747 465.800349 184.151645 5713.720897 4542.802497 3919.763846 3076.582472 2565.160570 2030.323798 1558.946524 1134.851223 762.014776 506.202049 224.372032 5999.880978 4889.748812 4252.213871 3354.515973 2841.273012 2260.296877 1759.357359 1288.694400 880.727133 557.008709 270.259356 6350.715492 5279.706040 4635.867637 3678.782436 3155.957664 2528.580037 1988.692495 1469.376406 1014.621599 617.570918 321.353555 6752.373697 5687.932796 5046.634398 4039.457101 3499.244799 2821.550194 2237.153532 1668.688802 1158.379350 686.065053 376.330303 7185.657178 6102.606434 5468.558217 4413.535772 3854.020008 3124.915889 2490.863329 1876.693508 1305.612661 759.088489 433.298518 7616.267409 6501.603817 5885.981163 4777.811775 4198.975523 3426.351228 2737.663892 2081.749076 1449.904962 832.599533 489.689673 8013.354702 6852.859865 6271.032241 5112.752161 4513.973720 3706.232806 2966.310619 2272.963262 1584.032551 903.135347 542.520195 8356.646636 7157.791285 6609.266754 5404.553209 4788.252389 3950.493808 3166.575969 2443.620981 1702.072190 967.262307 589.519460 8617.896488 7401.899452 6880.238792 5640.088460 5015.939037 4151.547179 3330.664068 2587.203489 1800.533327 1022.145019 629.142554 8797.417194 7598.386281 7077.262132 5806.387318 5187.876019 4304.805105 3457.146598 2699.573035 1877.372715 1066.627787 660.434140 8900.280580 7748.606863 7211.377670 5921.782993 5310.793103 4412.998336 3547.200436 2781.935932 1933.143695 1099.806545 683.644640 8923.871958 7811.813039 7261.980770 5977.593102 5373.642492 4468.521288 3596.538728 2829.691046 1965.120032 1119.745589 697.961565 8899.496954 7837.157892 7252.753688 5990.906480 5391.672487 4484.075568 3615.511212 2849.517223 1976.178029 1128.124809 702.470831 8807.991181 7788.660034 7168.745173 5945.810959 5351.810619 4448.028484 3587.511124 2829.893527 1959.880492 1119.441112 696.408219 8697.439163 7738.243638 7068.975183 5871.314902 5268.068961 4379.212771 3532.563908 2781.511293 1922.544588 1094.007729 677.104165 8544.703203 7612.821934 6917.596666 5778.407576 5151.668039 4272.642457 3443.823119 2701.436595 1866.090942 1057.829653 647.298516 8462.339666 7536.098563 6763.441088 5662.118400 5006.122763 4147.446566 3334.482355 2596.386540 1787.617609 1003.238313 605.141537 8371.060203 7409.330234 6632.985333 5576.037577 4869.902252 4025.006740 3216.611554 2495.018392 1726.432477 963.118699 563.744917 8250.257044 7251.205977 6419.358512 5430.634715 4708.254507 3909.428817 3107.517573 2385.024503 1639.072869 898.477869 521.347428 8301.129754 7269.111459 6427.179033 5384.154650 4564.418128 3769.668434 2966.111664 2288.247127 1612.307788 891.827200 485.848665 8010.837258 6878.478996 6069.713057 5164.871640 4401.752858 3695.395349 2907.790789 2203.314276 1525.177329 842.402972 476.406637 8233.313309 7121.569618 6218.310000 5134.779470 4235.803952 3493.357937 2707.125766 2095.637053 1513.652353 826.591227 434.853944 7734.601107 6509.871505 5744.021761 4839.204228 4052.960497 3442.211806 2657.222302 2001.361719 1440.487410 841.179174 475.557997 7920.880543 6792.663500 5861.588100 4784.425443 3847.420697 3140.233864 2457.545699 1919.066161 1324.920480 663.316876 422.786791 7455.249317 6250.408199 5466.461752 4426.666451 3639.228661 3097.872640 2241.174172 1648.943393 1362.576822 917.365306 401.649263 7163.917179 6149.479476 5196.068132 4319.726905 3260.362725 2810.640668 2185.680076 1693.913702 1079.521131 344.604332 519.273570 6962.368878 5912.432333 4712.831724 3752.492706 3108.003960 2266.557478 1716.100528 1344.380964 1314.153205 751.167769 272.854747 6133.377916 5017.889612 4541.849108 3451.113062 2521.884246 2322.654513 1846.115144 1017.516702 407.361177 806.581707 322.791256 5966.486721 4814.356323 3382.849860 2782.669841 1875.846404 1702.170035 880.673403 1506.458881 1181.347088 -94.698264 603.656113 4857.812918 4042.706233 3690.778218 2569.259448 1530.873716 1334.675497 1203.628018 -70.265248 656.652541 139.014344 236.337479 3988.957587 3576.005969 2067.874010 1365.163217 623.806092 978.498247 914.117537 731.405068 325.025902 821.980646 92.809532 4009.633202 2748.791221 2333.350900 98.075212 1489.664087 -176.273568 23.650839 -123.026243 -429.335700 -356.288441 278.519272 699.886179 2766.420535 980.698938 33.972297 -1545.960230 16.845145 699.212257 -701.348658 1034.736183 -572.808599 347.626038 3359.459510 504.445114 -1768.974486 10.021597 -1066.029249 -926.191053 -1826.476386 -685.895310 115.343910 -1270.560417 596.303056 437.840150 1762.610861 417.544707 -502.107042 -419.972134 -139.663496 -38.386572 -561.438447 -1213.889119 119.917872 451.480320 2590.467987 -4217.037242 -1752.371805 -1842.248820 -2899.305608 -1693.454911 -1493.617015 -1071.385911 -460.410276 1029.382158 -1202.737008 35478.561832 33865.715445 30397.238187 29388.377877 26387.049326 22994.618395 21508.117900 19711.924749 16195.185757 13694.424010 10726.622419 7517.948832 -2465.475620 -4885.601244 39465.863181 36300.579843 34545.954785 32218.999425 30519.620520 27556.690182 24963.326929 22043.414457 18930.123398 15450.799288 13653.971065 4471.084890 6839.070798 655.742908 38127.801142 35664.304087 33666.047079 30781.814285 28335.493883 25403.652475 22872.718724 20745.265628 18700.743004 13659.332913 13704.835798 10163.443701 3256.339086 2978.051667 33111.242145 31549.926332 31007.848324 30385.719779 29054.290782 27675.404377 26022.325587 22850.867565 20588.912633 18217.405292 13321.717460 8798.823668 4385.362299 3049.494907 36176.985768 34394.343524 32159.168311 29499.256864 28236.655810 26268.883066 23749.868547 21924.427312 19455.740984 15728.405631 13681.012709 10078.374435 4842.954701 2717.581174 28770.465023 30379.040876 27411.506132 27933.902268 27356.691699 25699.993660 23938.857727 21557.292761 19891.175940 17549.569701 13678.443296 9131.702849 4937.905256 2939.297134 38559.974799 37323.682816 34628.844046 29250.983545 24977.193367 23118.395482 21427.811499 20179.144274 18158.177201 15001.190273 12887.188838 9789.051939 4854.875271 2807.982769 28614.684324 31720.005562 23340.081387 20330.493376 23145.022352 23366.357268 20571.697745 18061.746565 16599.367755 14894.905204 12167.895741 8263.300584 4047.766560 2501.587294 29591.064277 23267.964378 21331.876001 24343.430410 23073.596640 18678.114882 17247.122580 16353.518355 14838.159074 12368.471617 10823.632016 8324.783803 3799.111353 2415.970447 29081.706739 22345.949627 19074.695684 23015.545660 20655.245449 17747.325303 17182.891813 16349.739294 13116.401051 11659.337486 9970.685206 6270.998334 2877.422537 2199.541428 18496.978541 20618.795719 16946.312118 14533.866021 13260.672539 13467.234562 13271.948247 11835.374797 9728.856084 10121.984776 8510.840637 5774.303510 3142.732369 2262.491416 14196.306486 9062.887391 17522.788500 14442.835667 12711.379753 7336.962302 7097.410026 7831.369469 8314.293807 8632.404567 7204.449796 4225.890499 1486.766048 2350.310961 12356.921034 7272.260802 179.864279 7293.742999 12107.919445 9735.591038 7729.718486 5505.739893 6673.778368 5922.729613 3944.931472 -2444.206490 1785.640536 1924.600872 -2458.169588 6928.672005 -4532.295290 5912.875590 628.527912 2119.911257 10995.667746 9850.342106 -1882.187388 11566.959282 9015.803725 476.888080 3171.994605 1380.652645 -4506.823885 -687.198133 2085.302157 8558.408935 7215.092984 5898.936725 1110.565626 7941.375933 263.654341 5598.715340 9165.047195 8022.912781 -356.672235 1835.234076
</DataArray>
<DataArray type="Float64" Name="Velocity" NumberOfComponents="3" format="ascii">