<VTKFile type="PolyData">
<PolyData>
<Piece NumberOfPoints="1945" NumberOfVerts="1945" NumberOfLines="0" NumberOfStrips="0" NumberOfPolys="0">
<PointData>
<DataArray type="Float64" Name="Pressure" format="ascii">
 27254.582875 22546.854159 22471.480350 17749.278624 22740.939883 21510.784007 19188.402010 16370.863829 16767.587324 15280.673875 17920.771572 16505.420400 18125.653292 15880.798231 18920.219919 18023.166432 17106.398227 15264.089669 16374.773334 14420.685698 16676.521284 13647.592963 18936.063284 17683.760449 18800.001217 19495.754314 16148.588400 15915.451016 16417.287470 16384.941207 15502.059052 16041.029419 16433.514814 17054.471405 16868.220709 18701.019236 14074.583000 14062.883944 15035.885069 15629.842449 15052.108503 14947.983613 15946.816013 15979.910161 14227.041812 13589.697167 14865.367481 16591.613968 12408.939038 11491.731357 13695.504150 14577.866973 14627.740738 15812.671312 14039.953691 15059.413476 13677.874838 13854.158620 15180.468067 14864.060237 15270.602368 15904.682730 15003.812625 14992.806871 15115.148002 14748.860484 16664.947712 16405.180340 16971.802423 16416.450336 16896.240640 16489.659566 17534.350232 17097.192953 17442.744599 17492.146792 15618.382004 14887.680421 16934.443744 17115.672912 16947.454382 16566.667664 18108.545114 18209.332940 18711.155442 18793.221195 18921.663139 19376.556411 18895.784123 19222.303876 19457.593317 19541.642460 21575.864458 21757.286638 22844.597280 23053.250160 23083.105235 22564.219570 24335.167889 22864.739401 27439.697602 25982.205308 28090.448296 26081.644479 28099.481102 27455.141698 24487.825601 23122.469392 22963.437721 21947.947874 25783.816447 25069.535953 28018.241503 27762.447978 29045.033830 29293.420479 29143.133536 29073.776645 30253.230090 30315.297363 30571.370721 32206.287084 32205.445309 33750.138957 31472.869307 31304.615071 32572.341385 32392.709941 31440.948368 29527.006333 32149.490940 30401.451940 33431.326682 32728.894679 32466.161899 31274.071815 32976.049667 29603.448321 34212.013942 31473.392885 31367.095183 28600.358546 28755.775889 26512.754399 28195.083743 27531.374623 26674.748446 24846.549412 27766.875958 26297.295237 25781.927840 24995.364027 25510.237274 25546.935870 24414.475345 24095.104497 24470.990044 23400.227704 24723.445377 24472.133877 25422.323702 25740.612946 22897.674520 23218.826192 24314.158066 24857.273891 24781.442816 25063.477301 25207.415135 26439.604446 24250.006459 24698.910878 24441.103362 25068.660500 24165.225002 23784.382136 24723.620541 24596.403686 24826.032012 25915.256465 24388.540403 25778.691302 22702.164476 23695.711627 22688.881821 23286.280166 23130.197843 23511.595376 23947.062495 24296.558583 22677.573085 22031.966617 22175.361953 22437.425081 20334.348409 20059.929649 20653.692794 21555.217312 19861.183045 21219.724002 20503.055933 21201.346354 20047.489517 20137.188163 19929.318371 20483.425506 16123.980960 14031.575712 16831.905438 14773.377370 18863.042375 17017.271553 16582.378905 15977.243540 14047.979225 13086.770661 11419.656836 8168.787125 5021.849002 3080.558438 5458.448442 4208.665303 -3600.340916 -10137.287185 -4875.142309 2978.373487 1183.417509 -1487.447007 -4820.355119 -7251.711773 -7735.833986 -7724.214410 -7533.679690 -7242.084471 -6893.963578 -6512.506117 -6110.599987 -5696.554616 -5276.677756 -4856.366076 -4440.525075 -4033.679357 -3639.942043 -3262.931552 -2905.684972 -2570.594311 -2259.376991 -1973.082241 -1712.129197 -1476.369592 -1265.166948 -1077.484481 -911.975002 -767.067456 -641.046257 -532.121036 -438.486238 -358.374654 -290.132791 -232.483451 -186.108367 15149.261132 13543.398580 13552.924740 13899.247704 9293.500501 10525.925154 10655.477229 5587.908686 2130.559324 -864.414269 2700.712088 9529.785150 184.547303 -19213.200631 -7233.660660 1978.347390 -395.904617 -4583.403902 -6229.223428 -7257.216452 -7653.680844 -7679.271422 -7508.931644 -7228.621208 -6886.511702 -6508.347561 -6108.445723 -5695.812998 -5277.070853 -4857.746475 -4442.790473 -4036.733619 -3643.679518 -3267.233683 -2910.423296 -2575.636310 -2264.592572 -1978.349558 -1717.339166 -1481.428878 -1269.999479 -1082.031699 -916.195114 -770.933966 -644.545991 -535.251615 -441.251481 -360.767528 -292.040691 -233.114600 -180.401632 15284.397545 14451.511753 15367.391610 15519.244256 15580.124548 10774.656431 9503.016137 9987.226481 8049.030837 6953.317421 7304.750848 6986.631608 6091.458185 8176.863370 14684.379302 8834.099936 10115.612931 12192.089854 8093.639535 6718.061644 6040.502187 18095.879122 15447.272155 5002.568511 22489.280138 12252.906160 2896.621179 4858.264722 12227.387258 3672.803623 515.580437 299.193524 187.893661 122.221118 81.298114 55.231020 38.343608 27.163428 19.562963 14.253087 10.454066 7.687091 5.648668 4.138134 3.016878 2.185477 1.570605 1.117157 0.783146 0.535586 0.344372 15471.026268 16415.377835 17223.015476 17084.013205 16086.057328 13840.430663 13182.217328 12887.691747 12093.123704 11517.659892 11540.652209 11615.469556 11330.816140 11691.389689 11515.504632 10687.858665 10598.227106 10428.893288 10149.035693 10757.836933 12153.926896 13022.137642 11437.808699 9363.486507 7929.491345 5223.127559 3318.766220 2431.450762 1746.070354 1030.711558 557.793973 323.566681 199.766708 128.435191 84.856763 57.376563 39.664823 27.987412 20.086023 14.594080 10.683790 7.847100 5.763341 4.222045 3.079070 2.231843 1.605185 1.142884 0.802469 0.552296 0.373327 -155.021701 -141.021515 -145.981224 -133.144466 -122.382220 -115.691616 -95.540867 -94.881672 -75.717532 -75.921043 -59.946998 -60.241432 -47.278356 -47.541499 -37.121094 -37.340212 -29.013336 -29.192552 -22.573067 -22.718472 -17.482568 -17.599830 -13.478715 -13.572757 -10.344921 -10.419932 -7.904015 -7.963526 -6.011964 -6.058929 -4.552386 -4.589257 -3.431800 -3.460595 -2.575555 -2.597928 -1.924384 -1.941679 -1.431499 -1.444801 -1.060169 -1.070348 -0.781718 -0.789469 -0.573883 -0.579755 -0.419471 -0.423898 -0.305276 -0.308597 -0.221209 -0.223688 -0.159603 -0.161445 -0.114660 -0.116022 -0.082022 -0.083024 -0.058425 -0.059159 -0.041441 -0.041976 -0.029271 -0.029659 -0.020588 -0.020868 -0.014421 -0.014622 -0.010059 -0.010203 -0.006988 -0.007090 -0.004834 -0.004907 -0.003331 -0.003382 -0.002286 -0.002322 -0.001562 -0.001587 -0.001063 -0.001081 -0.000721 -0.000733 -0.000487 -0.000495 -0.000328 -0.000333 -0.000219 -0.000223 -0.000147 -0.000149 -0.000097 -0.000099 -0.000065 -0.000066 -0.000043 -0.000043 -0.000028 -0.000029 -0.000018 -0.000019 -0.000012 -0.000012 -0.000008 -0.000008 -0.000005 -0.000005 -0.000003 -0.000003 -0.000002 -0.000002 -0.000001 -0.000001 -0.000001 -0.000001 -0.000001 -0.000001 -0.000000 -0.000000 -0.000000 -0.000000 -0.000000 -0.000000 -0.000000 -0.000000 -0.000000 -0.000000 -0.000000 -0.000000 -0.000000 -0.000000 -0.000000 -0.000000 -0.000000 -0.000000 -0.000000 -0.000000 -0.000000 -0.000000 -0.000000 -0.000000 -0.000000 -0.000000 -0.000001 -0.000001 -0.000001 -0.000001 -0.000002 -0.000002 -0.000003 -0.000003 -0.000005 -0.000005 -0.000008 -0.000008 -0.000013 -0.000013 -0.000020 -0.000020 -0.000030 -0.000031 -0.000045 -0.000046 -0.000067 -0.000068 -0.000098 -0.000099 -0.000140 -0.000142 -0.000198 -0.000199 -0.000272 -0.000274 -0.000364 -0.000365 -0.000471 -0.000472 -0.000583 -0.000582 -0.000676 -0.000672 -0.000705 -0.000694 -0.000584 -0.000562 -0.000169 -0.000127 0.000780 0.000854 0.002647 0.002771 0.006032 0.006234 0.011853 0.012170 0.021491 0.021973 0.037004 0.037673 0.061504 0.062101 0.100183 0.098565 0.166143 0.146357 0.233759 0.192906 0.265083 0.219768 14518.392207 15492.281074 11513.125019 20036.754672 17251.203057 9974.100743 14927.363987 11547.611641 13536.899352 13855.443729 12106.455329 15538.690439 15673.226932 13929.484341 14388.976706 11132.592025 7629.577618 10436.700769 8795.874088 9939.595415 14198.108307 11013.164995 14310.445865 15565.675981 15396.832827 15320.249744 14758.137723 14070.692970 7202.111804 13239.137031 10246.209573 5130.801115 19512.781314 14225.553560 13991.130757 15810.579340 10516.503416 11779.839136 15029.396726 11976.330601 4685.476062 13775.957724 8538.003858 11890.443339 11280.110151 7819.081027 14176.156858 13781.557306 15162.089028 14274.382250 12414.906646 11937.359519 7515.132901 11034.560908 10823.099701 11721.111052 15356.361732 17363.750540 16390.887864 13731.265102 9857.942722 14622.984861 13480.594797 9916.119199 6143.611908 13710.688033 11519.921064 14220.049874 16374.624180 14541.464179 13919.905629 11269.793317 12216.340576 11489.112384 10231.878006 12289.518878 4803.705683 12673.984709 14562.275439 14181.670330 14429.140689 17317.871915 8708.405709 9438.673376 11223.643540 11569.089765 7876.708039 5626.972053 14681.809050 14395.872175 11677.612317 12304.400170 13548.424392 12455.459627 10485.849488 12140.369948 11809.484242 7961.302002 9335.016418 12060.533708 12315.714040 13210.929192 14630.232001 8860.344907 12446.943412 8727.312300 9434.053813 11019.066256 4459.643331 9314.349676 13421.744009 11553.676164 16184.659578 6097.511918 13290.313385 9754.920237 10552.800086 7945.042453 6054.586473 5864.928806 3002.302186 12548.270193 12320.015126 11202.910443 13110.625641 8093.418054 12930.963581 5953.567846 10147.955227 10964.164351 9129.361158 7795.764441 14781.119097 12950.935445 13193.923748 11207.210390 9415.155989 10771.991965 11296.475762 8837.793466 11833.035140 10469.583790 8775.098881 15938.161616 12843.567058 15266.153809 14853.896925 11955.749515 12632.909220 9983.789879 9078.717745 10640.546223 3185.040552 5460.899953 13981.542194 13232.035310 14742.033148 14080.031831 12652.130763 13225.195175 9624.608329 9498.690185 5382.057324 4227.561243 2717.134549 16128.944781 14009.621266 14860.633166 14243.940914 6821.056390 7268.539156 8728.118318 7770.155333 516.863115 341.108373 1490.136175 14731.945011 15991.836878 13447.766583 15520.770239 13810.736247 11452.419365 10063.760920 10830.658301 6221.378507 693.785005 56.588838 16224.226818 13245.680952 13719.579318 11029.029363 8746.602852 5668.294662 6777.514345 754.731313 1291.511600 1611.330128 2632.162696 15509.961675 13412.596379 13917.200379 12838.243890 12114.466026 6741.110435 7189.430884 3306.740689 7601.187822 5031.240489 1967.872140 17396.247331 16190.224951 13956.263897 10870.598938 9863.849385 7401.586910 6024.957912 6817.207958 3121.598193 2141.063835 1666.589356 17823.839446 16415.296639 17130.959790 14973.032888 9088.631506 4115.591208 6378.596525 1306.878305 -101.072091 2468.296714 1192.583280 16005.883623 16193.028775 15136.734404 11891.429997 14610.064864 2433.493460 3174.738535 4893.863400 4966.500661 6285.923207 2679.622767 18645.072064 17974.666905 14006.600956 12712.228424 11262.714821 10821.099460 2836.394880 3525.745106 1157.784840 3434.423957 1991.183974 18240.532988 18566.709963 15372.670872 12116.158277 7672.894077 9965.224145 10547.195844 6957.490196 4994.504588 3783.480887 2896.899081 19380.785357 16224.450583 14231.698430 11280.253022 9678.688625 11026.954107 10680.996720 8002.704684 11066.479503 4489.578816 3513.822934 19467.222774 18353.558496 16370.307384 17030.513178 15423.385947 10706.976695 10767.004130 6535.941969 7659.401599 7790.836539 2672.660339 19663.065969 20052.533243 16958.423276 15919.961009 14851.054858 6496.226144 14582.538149 2638.092259 2127.402834 1301.886831 8673.024591 19629.988303 17443.940424 14333.917852 15254.350913 15913.533827 14688.207246 10196.853099 13681.617583 5971.183912 1261.235385 7820.117881 19639.452571 21047.835148 14770.090386 14803.900424 20128.303135 11993.651756 4421.147995 9075.242056 7751.134946 8511.102795 4870.714743 21898.478200 19631.347667 16831.667700 11318.184462 14314.651059 10238.195183 15668.295870 7097.107947 10955.849880 7492.701649 3480.007895 20603.729012 20832.692858 21179.132791 19079.113783 14200.276937 8062.305328 10924.809165 10056.188126 8217.710591 6428.101244 3701.714464 23245.163047 20939.911171 15429.331497 18131.207792 19046.979393 13818.558306 13842.456213 11190.101585 12201.126799 8032.756208 2647.529337 20614.473032 12684.522065 21281.404332 21144.624084 17513.727017 14873.634932 9921.202625 12108.533058 3636.710658 5998.583473 5765.972956 24015.725040 20771.860730 19394.139917 21153.275801 18635.610600 16890.383207 15047.280258 11667.705562 7740.828333 2512.910029 5275.645327 23721.107004 20579.375255 21970.709826 20530.189919 19646.635934 17804.394653 16103.620151 8555.737502 7302.568637 5847.918352 2733.303817 27276.777524 25644.085909 21529.595004 20097.364540 20934.018457 16224.843100 14284.194670 18855.638907 6578.587275 1759.324660 3475.665812 24675.165075 23124.058945 20784.596960 22038.922661 19344.550291 21309.083115 15948.704063 15357.530347 9861.254946 7270.721135 2053.816943 26215.416005 21959.503057 23413.707001 24618.323112 22622.499584 17333.978847 17081.659667 15642.723651 12246.416630 2752.550609 6257.419288 24222.657771 25227.460384 24504.637911 21296.860975 20396.259907 14699.989192 11419.393645 7420.206127 11007.017274 4105.433146 1080.410455 24856.397702 22262.964488 22897.889350 19031.771361 10551.907974 15466.409202 10637.295723 9909.619781 4532.837298 8291.283422 6156.921199 28215.618037 26331.986151 26132.352808 24728.866039 22953.536187 18364.970397 10480.180517 8289.775362 11482.277984 661.778445 7097.155706 27523.469721 24771.800038 27505.344988 22180.940212 20677.437016 15102.667712 16175.750845 9971.653868 8977.660934 7701.465724 7493.712850 30262.154949 26806.304266 21981.015095 23581.771941 21755.652094 15321.594200 15204.392960 15237.421632 4320.865464 8730.102526 7035.164847 27960.306616 25699.464897 28761.887324 27834.278183 20344.057141 17576.133347 11393.977721 8539.129467 6089.597508 3892.043417 10881.799578 33708.950949 28151.370999 26066.191210 22985.432153 17300.582150 18904.492813 11084.199932 15705.973987 6622.680250 9868.812338 2787.758969 28195.912914 27503.009621 26637.598477 14335.970934 11202.100396 13219.868388 11093.148054 11292.786558 6895.416316 4368.966072 1406.192468 27526.784969 25232.695821 22522.664721 24841.536624 12888.101085 16317.876645 15957.210398 4247.984491 10264.609911 10801.132440 3573.537486 32216.995195 29341.791934 25112.373031 26637.478862 19392.757550 19421.565233 9402.481370 18940.215432 10430.916723 3306.618903 -404.153219 27531.038930 26491.718023 25924.706283 20361.262057 17554.740236 22001.331901 21078.740417 12258.568978 8444.970948 2760.173707 483.759469 29980.693771 24355.412638 26162.979885 19768.786118 23229.531892 16965.540924 17991.848337 15542.547940 12432.926478 5669.161562 1603.887430 29418.125262 26122.140766 25987.684716 22996.232796 20293.791273 18514.351778 14474.530930 14098.181209 10887.296335 6751.926040 36.986176 28171.077608 27975.030317 24030.003215 26008.402727 19795.226006 15646.718067 14833.097757 13937.364027 11149.798144 6465.475423 -27.515331 27566.044551 26490.119783 21955.333972 24913.967221 22012.101829 18406.069846 14862.172944 11327.417302 12600.309110 9839.207301 2965.938744 31226.785207 26932.493795 28895.085327 23706.797194 18475.261953 19450.113553 13306.739124 10765.121897 7165.701612 4079.721153 1939.936742 28538.683743 26290.146316 22503.048832 22735.566797 16154.847672 9861.375623 9328.594219 11405.621616 6285.522293 3427.443949 9353.351546 26307.992995 26624.738222 27092.369862 23371.064069 16253.320944 14123.122383 10219.804807 7679.628156 7232.398373 2905.262411 502.350951 29562.711870 22014.459849 23443.648614 19838.293058 11280.280236 13851.328498 10207.575238 8496.715117 8174.367925 2402.344245 5873.437801 25811.741642 24295.603822 18585.167685 17159.743254 16887.421569 12866.540343 12708.625370 11657.892842 10111.625363 6356.703518 4577.139203 27756.853735 21745.656826 19956.493729 17685.490181 16831.414372 13897.541061 13609.919246 13140.952394 9112.759758 3864.300122 2936.491546 26359.844260 20808.869490 23360.649386 18289.223438 17616.622818 18356.888779 13685.467729 10408.604774 6716.078400 6203.206551 2912.979941 23815.722352 22418.409938 21867.716337 19231.094022 17799.131486 16170.497499 8748.574337 5932.298481 6252.886249 4558.012626 4900.824355 25278.869486 20848.840516 20885.051326 18349.827311 17758.628058 14783.730143 10186.067964 7981.405375 6130.579592 3681.577797 799.560371 25114.725725 24932.903848 21349.391345 18462.676120 15578.794638 14415.529502 15248.201587 7981.959495 3345.114435 3415.458240 4936.615363 25816.077320 22419.366245 21649.361016 18699.151488 19821.691118 15629.628851 10237.352429 11358.003580 3331.726249 1481.510656 -193.561213 23118.017255 20774.925732 22979.114597 18509.152765 15581.660506 15196.879075 10137.682771 10134.769265 7981.237774 1000.995509 5631.479806 22895.363149 22726.321185 20977.004715 17118.450467 15310.184460 13097.786931 10818.581461 8730.961574 6670.481353 2358.431103 4527.954065 24442.930946 22739.231744 21911.903247 20017.257530 13849.708352 14052.148910 12492.875676 4265.571543 2802.732067 2250.002882 724.079607 22743.354163 21867.945772 20330.209343 20289.794696 13354.008334 9022.277178 7688.235917 6913.584703 2875.302902 2374.013057 862.362892 22332.322860 24598.276777 19139.931648 17301.768600 13399.977910 8395.107895 8834.399282 5878.349237 4512.381682 4655.104540 -3495.197470 25433.101145 20466.170854 21658.366280 17738.506355 17338.449672 9720.125103 9663.115656 6265.500182 4888.089038 3680.391905 6963.764540 23222.989205 23903.127413 23173.460791 17735.289392 14095.219356 11671.799293 3812.334757 5301.208614 5045.691509 4390.732487 -448.277076 23736.196284 21092.790909 19931.736067 21310.773882 15451.617300 12163.936332 6453.518614 5540.913033 2726.594248 2188.384983 2521.429243 23705.978623 23144.912235 23542.979686 19391.803279 11583.591941 9698.508660 7267.170219 2263.164305 2093.386456 2179.222893 508.751517 23597.609974 22372.172698 21182.933943 17220.056439 14921.759918 10763.393250 7272.897591 2844.360314 3312.083494 -526.813374 -2459.057321 25106.028527 22629.651576 19534.454562 14827.565799 17285.769610 8163.978477 8125.642129 6237.997006 8545.094958 5069.961324 14922.576887 21749.537784 20719.478976 16695.902024 19230.901063 16151.006204 8809.718761 10425.836838 3477.391099 7254.428912 4034.993847 7872.106159 23924.389964 21583.637457 22731.265797 18540.539965 12454.121283 12320.444953 5674.471556 3159.955329 5604.254900 8820.083534 1706.441674 21813.650310 22815.382287 21480.123469 16075.873745 15116.902533 9401.530262 6084.675052 3825.922733 5971.193683 4109.945177 1242.261666 23423.831231 20700.934913 21080.348943 17845.137462 14839.296859 13754.785758 7399.631702 7684.305282 5574.869469 6677.103077 4585.216055 21767.881389 22768.922960 17053.811710 19588.240860 13448.204851 11394.351646 6486.084274 7324.982075 6771.353538 7217.654367 10553.196163 25657.123524 19852.458684 22766.246378 13546.731564 14460.212759 9527.602143 5204.546371 7190.975662 5894.231185 3145.164563 7731.785441 21275.687512 20330.649476 19585.388178 18841.362731 11479.278989 9027.308749 7498.553985 6226.338178 6314.395541 6846.892178 -2332.243851 23637.401863 23183.723359 16947.372656 17088.289787 13550.388711 11384.126740 8610.927570 7110.035950 6668.373167 6759.303782 12168.025646 20943.776873 15927.049143 17683.098606 17130.022378 13302.351155 11182.324806 7401.565958 5321.948231 7789.687882 7075.075840 10244.296867 21171.242683 20401.789618 16570.055344 13341.927585 12520.982426 8079.503100 9626.449155 7870.612750 4948.495846 5919.977834 217.864645 23055.673745 19650.693449 17783.430120 15562.216887 11459.853133 9731.438635 6978.579561 8094.468917 10964.209172 2510.405699 1690.174260 21954.540553 17365.361032 17726.401712 13465.298427 12756.476643 8355.469956 9011.765153 5828.310221 9472.975501 1734.951477 3065.184725 21833.006745 20192.605493 15071.649600 14029.697081 8895.565017 9767.229229 5972.657037 7077.281771 6969.721565 7934.954838 -16762.629277 23561.568696 20567.028100 21740.686549 13745.346032 11918.529994 7139.282002 7856.544459 5437.822795 7898.976237 7205.529283 5695.707772 19991.303314 18943.402579 15210.631657 13414.608473 9714.343375 12427.304426 7223.088599 7579.365911 6616.914018 2992.315511 9821.714961 20616.175685 19945.374575 17196.143435 15798.517903 11605.944661 12973.444863 6223.771894 7447.937748 8877.312902 7088.403734 24975.206293 21579.092160 21249.604447 12763.010751 18019.929805 8364.407398 12737.404207 7277.451016 4149.215935 5699.132412 2236.069844 10869.066530 19457.617361 18407.394812 16231.678823 15906.761126 12128.558561 8609.325727 8310.910042 7108.888029 5951.639886 634.425774 8535.503493 18572.978351 17723.453309 16773.533224 16868.195471 10902.248867 10600.854297 8900.431106 7793.862175 5105.272487 7550.397463 -15606.743885 21289.226416 13866.341129 17964.242787 7904.968980 11573.468293 10818.682142 7265.429914 8401.036982 7063.883204 7976.273845 6629.477204 19991.751446 18483.357725 16898.371389 12673.351770 10483.542703 9964.601174 8619.376353 7770.428837 6250.965418 1048.208564 21444.299277 17218.838161 18892.307909 10810.023435 7328.913934 12020.587900 5962.688686 7661.122896 3335.974400 6149.576445 7722.657256 6751.433307 15750.904764 19700.539739 15414.654643 14391.675220 8495.393464 10678.421243 9008.139409 8037.870904 6745.686517 6778.475125 6880.777714 18493.667153 15661.844627 10963.882199 13489.568693 15028.401475 6091.653697 11038.763645 5246.798841 5455.061849 6476.293487 5803.304678 15093.207552 17760.322794 18279.026301 16251.910892 7073.118248 13520.973559 6436.209179 6670.378664 6457.070980 5843.325476 16296.800879 20209.403239 18854.168385 11043.403019 15070.299501 9520.199780 8606.707662 15780.063383 13083.566189 7363.082845 5272.612710 6946.641456 9872.644966 17036.507030 17571.211319 10599.402029 3011.829678 12184.006853 11346.779524 8502.074567 7477.481486 8950.306883 5615.214865 8086.378546 -16654.577874 936.430218 9477.942155 6767.878279 11336.422093 14603.648164 7017.670749 13760.414678 11509.244442 9498.626820 11653.248080 -1027.660071 -5585.164849 16754.190552 7529.834604 -616.007720 6360.457878 10144.526643 8228.701743 6894.189194 7421.146302 1040.826837 3593.204023 8707.643661 8145.332494 4181.878388 3785.092543 4775.148814 -1476.692381 -6037.455111 9285.244652 7587.189712 9263.385535 9107.769498 5422.471295 6137.620070 9361.841424 6087.047272 3931.289652 9564.780549 8290.835893 6047.230567 12103.037541 -8945.178964 9239.294236 12307.244967 7019.549913 5946.478193 10828.016497 6284.695987 4801.722902 8732.065462 4164.748266 2214.794710 9523.837771 4537.427485 3861.674762 -11017.128400 10289.572215 8845.340919 4736.128962 13412.074593 10884.592132 7177.297508 8935.214322 5204.945212 3300.429530 5900.668161 6343.498944 1629.526985 4317.863620 3659.121745 14967.892369 4582.699684 6216.739455 7262.640461 2531.421721 5950.216287 6763.439790 5972.736786 3886.757934 4985.993150 3862.254672 1775.636996 2400.760309 -13004.171913 4249.813748 9192.548844 7302.955657 8775.268524 7117.472566 10461.884919 5321.772473 3286.159332 2207.413962 1829.375359 4306.425955 1950.748544 1755.519319 630.202617 10357.491221 8742.184828 3803.984115 4874.378182 7664.992782 1758.207992 4211.265059 3163.377011 488.972404 5262.812938 949.677048 4363.417862 442.517799 2007.252021 6116.836288 4484.201130 5821.549353 5959.359695 5726.607523 2385.936411 7388.532248 4465.543569 6227.597770 2801.417180 4745.108779 2571.888523 2117.955872 3332.229174 2438.581469 6839.529778 10036.568743 3907.882479 2173.548277 3456.023206 4337.681339 4733.099510 5624.327058 4783.381420 5974.320929 4706.727767 2818.729891 3066.461656 9120.905322 53.786274 5506.353015 11411.468445 4899.201065 5680.238846 2293.427728 6538.936708 2574.048472 4081.771041 2206.833784 5968.748623 525.272570 499.163703 3551.695036 1906.124722 1158.990792 2295.063851 528.826247 4285.983979 3850.880037 8278.588609 9524.640189 6123.314410 2264.806487 2645.455914 645.766303 1416.101493 1184.112220 2293.652349 3320.830684 -1280.559825 5867.068835 2037.860511 3196.289624 3725.014238 3069.881903 8950.073886 2510.139150 843.491694 2204.921432 1917.172441 1246.212019 4135.077352 1482.091731 3101.110972 1140.003626 818.464537 6336.093364 2880.170955 1153.259271 2422.166813 1089.445840 2035.929683 1056.938455 808.580846
</DataArray>
<DataArray type="Float64" Name="Velocity" NumberOfComponents="3" format="ascii">