<VTKFile type="PolyData">
<PolyData>
<Piece NumberOfPoints="1945" NumberOfVerts="1945" NumberOfLines="0" NumberOfStrips="0" NumberOfPolys="0">
<PointData>
<DataArray type="Float64" Name="Pressure" format="ascii">
 20883.456538 19080.366837 19838.418620 16814.764818 19744.185699 17306.666278 19747.141781 16844.198945 20789.275732 17774.793349 21165.195342 19198.762452 18200.279339 15976.856580 17446.354918 15280.516449 19544.640686 17313.222507 20996.301082 19050.098086 19866.271304 18232.122567 20855.406342 18657.136715 22647.961599 20975.811587 21987.541988 19972.701508 22625.867297 20104.267167 23354.133227 21806.936557 22690.681076 21284.957460 23137.175061 22341.845051 22404.256856 20302.535912 23866.289591 22243.775861 26157.487247 25826.725753 25060.175360 24405.148469 24691.079643 24642.917983 24569.785685 24675.682044 24000.916655 24079.635568 24367.101259 24032.591197 25943.398579 26236.747367 26454.294362 26739.672909 25909.527159 26044.098424 23555.655034 23942.755407 24017.763218 25068.501407 26935.337968 26369.083274 29156.443945 29442.991522 28566.279094 28945.192554 25977.478073 25147.829218 25217.164231 24606.134851 26081.035194 25904.073309 26044.164281 25472.978934 25162.196886 24254.363564 26296.697140 26586.110967 24980.620147 24961.997380 24222.072683 24136.388528 25490.556008 25311.074696 24472.327789 23944.143643 25375.579642 24270.282416 24673.649865 23744.332124 24579.140922 23614.555262 23250.227307 23080.028948 24641.993509 24589.158013 25722.607524 25008.165423 25249.973804 24066.735664 24001.380641 23060.165933 25780.104869 24720.285172 25756.873083 24506.627016 25881.529036 24783.419581 26079.433118 24957.006042 26620.851740 25260.256443 28216.904842 27552.157624 29104.019088 28635.150983 29240.855432 29854.213595 31208.299196 31939.813423 30190.567904 30613.453218 32793.241013 32274.898182 33603.347954 34038.635811 32520.376826 33571.362098 33141.058778 35140.194266 33558.583223 35003.426603 35568.666502 36252.812471 37083.211098 38283.313891 36457.618988 36889.161183 40590.169411 39653.091442 41043.910373 39940.809833 41975.959100 39747.784913 39681.047371 38342.206617 38712.077705 38187.860133 43920.254752 42470.224682 41257.927386 40295.742150 39107.014652 38728.532220 44489.612643 42939.245167 38808.401513 36843.051240 37920.019198 36260.531872 34703.222426 33882.789553 35021.294061 34701.136188 34261.531222 33908.373383 34604.132973 34380.945127 33114.689682 33588.129959 31798.643410 31945.762319 35002.289861 33830.832790 33000.584960 31343.269482 34098.683332 32045.046651 30377.721013 29493.237649 28605.350128 28795.427925 26579.474324 27671.134446 25232.910979 26283.911948 24086.371266 25596.264727 23779.320036 25339.484709 22700.354729 24243.759165 20822.474698 22199.954380 20235.432374 21816.691201 21069.772545 21990.307871 20238.345805 19523.670031 19030.189289 18308.634131 18659.751660 17523.604598 18297.053182 16681.685083 19166.969788 17734.724561 17824.644297 15247.643597 12915.123879 11505.976719 7837.709666 3839.765143 1273.878438 934.266920 1605.952460 654.683426 -2857.362739 -3852.189407 -1954.551681 -109.459863 -1611.705617 -5097.807041 -4886.669615 -4545.616498 -7162.813450 -9485.915843 -9212.817478 -8706.899581 -8301.871733 -7858.376823 -7368.354583 -6843.752210 -6295.574808 -5735.253734 -5174.502092 -4624.463089 -4094.930394 -3593.857738 -3127.155619 -2698.713352 -2310.575084 -1963.205576 -1655.794591 -1386.562857 -1153.045381 -952.338440 -781.304433 -636.734199 -515.469815 -414.492676 -330.982389 -262.352072 -206.265488 -160.642495 -123.669134 -93.891710 -70.920021 16606.872782 12721.091107 11441.592242 11203.919953 6963.709442 3327.510634 1882.342364 1349.775775 1835.633618 406.707269 -3299.032065 -4197.704662 -1715.448985 268.592297 -1140.408041 -4645.835641 -4537.534712 -3877.114102 -6892.994788 -9908.217301 -9363.886604 -8647.532739 -8283.357184 -7847.646665 -7361.638303 -6839.713525 -6293.934806 -5735.950572 -5177.389101 -4629.260425 -4101.264278 -3601.314959 -3135.329340 -2707.234579 -2319.130567 -1971.544936 -1663.729840 -1393.963108 -1159.828993 -958.464204 -786.762869 -641.539600 -519.653349 -418.096639 -334.055569 -264.945992 -208.430631 -162.419633 -125.045910 -94.537839 -68.541105 15880.832840 15263.433003 14749.192615 14040.412673 10938.446790 9308.510538 8769.901854 7958.851662 7247.617778 6398.628493 6624.961892 7539.304931 7055.887311 4413.739769 2994.782990 2091.471244 1512.448786 1133.086474 872.938850 684.529772 541.394916 429.043637 339.293112 267.125714 209.103211 162.625077 125.598443 96.290189 73.252760 55.278034 41.362251 30.676435 22.540609 16.401184 11.811123 8.412569 5.921678 4.115460 2.820462 1.903132 1.261717 0.819529 0.519420 0.319297 0.188536 0.105145 0.053536 0.022820 0.005494 -0.003552 -0.007751 16669.359711 15723.041703 14797.439422 13682.164342 11577.098800 10089.039676 9302.633329 8434.408224 7737.520767 7199.066310 7254.380419 6930.245249 5869.039764 4365.656463 3060.554387 2153.290807 1555.177375 1159.896218 889.335452 694.792516 548.207864 433.910058 342.998669 270.069114 211.492076 164.578452 127.195255 97.590182 74.304898 56.123814 42.037159 31.210791 22.960206 16.727832 12.063132 8.605185 6.067479 4.224720 2.901487 1.962566 1.304816 0.850407 0.541258 0.334529 0.199002 0.112215 0.058221 0.025852 0.007392 -0.002425 -0.007147 -56.028520 -49.396271 -52.201688 -46.211385 -42.001185 -38.974582 -30.815715 -30.542851 -23.069705 -23.174799 -17.256291 -17.392021 -12.847093 -12.961374 -9.511078 -9.600882 -7.000762 -7.069992 -5.123190 -5.176065 -3.727515 -3.767605 -2.696438 -2.726628 -1.939382 -1.961966 -1.386914 -1.403697 -0.986191 -0.998581 -0.697285 -0.706374 -0.490244 -0.496867 -0.342752 -0.347548 -0.238303 -0.241754 -0.164770 -0.167238 -0.113303 -0.115056 -0.077488 -0.078726 -0.052708 -0.053577 -0.035661 -0.036267 -0.023999 -0.024419 -0.016065 -0.016355 -0.010698 -0.010897 -0.007087 -0.007223 -0.004671 -0.004763 -0.003063 -0.003125 -0.001998 -0.002040 -0.001297 -0.001325 -0.000838 -0.000856 -0.000539 -0.000551 -0.000344 -0.000352 -0.000219 -0.000224 -0.000139 -0.000142 -0.000088 -0.000090 -0.000055 -0.000056 -0.000034 -0.000035 -0.000021 -0.000022 -0.000013 -0.000014 -0.000008 -0.000008 -0.000005 -0.000005 -0.000003 -0.000003 -0.000002 -0.000002 -0.000001 -0.000001 -0.000001 -0.000001 -0.000000 -0.000000 -0.000000 -0.000000 -0.000000 -0.000000 -0.000000 -0.000000 -0.000000 -0.000000 -0.000000 -0.000000 -0.000000 -0.000000 -0.000000 -0.000000 -0.000000 -0.000000 -0.000000 -0.000000 -0.000000 -0.000000 -0.000000 -0.000000 -0.000000 -0.000000 -0.000000 -0.000000 -0.000000 -0.000000 -0.000000 -0.000000 -0.000000 -0.000000 -0.000000 -0.000000 -0.000000 -0.000000 -0.000000 -0.000000 -0.000000 -0.000000 -0.000000 -0.000000 -0.000000 -0.000000 -0.000000 -0.000000 -0.000000 -0.000000 -0.000000 -0.000000 -0.000000 -0.000000 -0.000000 -0.000000 -0.000000 -0.000000 -0.000000 -0.000000 -0.000000 -0.000000 -0.000000 -0.000000 -0.000001 -0.000001 -0.000001 -0.000001 -0.000002 -0.000002 -0.000004 -0.000004 -0.000006 -0.000006 -0.000011 -0.000011 -0.000018 -0.000019 -0.000031 -0.000032 -0.000051 -0.000052 -0.000084 -0.000085 -0.000135 -0.000138 -0.000215 -0.000218 -0.000336 -0.000341 -0.000517 -0.000524 -0.000782 -0.000793 -0.001164 -0.001177 -0.001697 -0.001715 -0.002423 -0.002444 -0.003374 -0.003398 -0.004565 -0.004587 -0.005959 -0.005971 -0.007422 -0.007408 -0.008585 -0.008615 -0.008967 -0.009306 -0.008944 -0.009462 16872.002933 16014.204377 15403.706086 16788.450025 13478.869890 10750.013694 15153.151944 14057.872141 11875.767252 13522.929694 9621.470676 14651.128671 13235.057914 15879.274099 15486.796793 9683.761454 12222.906067 13002.942598 10907.041853 11392.481854 14586.132123 12228.444970 18270.376124 17166.892586 15616.505245 14835.986987 15788.551616 17637.064121 11463.053244 12618.710106 12885.672841 7330.894297 16469.227936 19060.083304 17766.201046 16752.254897 15115.793210 15938.428431 16544.262326 13170.516357 5588.074381 17234.702709 15131.923250 15255.277935 17277.715197 12733.960147 17461.532814 18435.558273 19883.334596 17752.619304 18035.677314 15539.123277 14094.530728 15459.289483 17356.256081 20535.177041 22167.209887 19868.187996 21360.762122 21044.022417 18117.398439 19452.607423 18063.299751 14256.411330 9481.589294 19046.805052 19415.174475 21860.155001 22313.721590 21508.173495 17947.776047 20266.063493 18990.657968 21388.452388 17020.878766 19425.880130 11447.957021 22109.109529 21851.338623 22491.944633 22785.116214 24513.836104 18413.232742 15170.052977 19789.363425 16059.827821 17554.381615 12210.383196 24402.929672 24772.981549 21516.108857 21557.371456 25310.190228 23324.573994 20897.320313 20188.512277 20070.492245 15110.971328 17850.065371 24317.530211 23812.603023 24610.264527 24054.993795 18398.499708 24099.338950 19007.628275 22154.951993 18672.062254 11040.153554 13995.875355 25297.569742 22863.015452 26143.805901 14187.508853 24204.413133 18404.109478 20588.592150 15080.160030 15904.294266 10676.868376 11884.392732 24393.246662 25151.461552 22861.599641 24117.709802 17429.101527 21650.020776 12965.885046 16438.667650 18490.198880 18422.429977 12931.174896 25539.237634 23993.836358 22289.307208 20651.181006 20239.058210 22292.867767 19028.777225 16152.385817 17618.738519 15892.257915 9435.834551 23784.881404 23823.582699 24610.671364 23132.145269 20574.920671 19826.786490 16746.801803 16021.197348 16655.581440 6044.425388 5800.079068 29359.496997 22587.797360 25400.018506 23628.889871 21652.529721 18883.859648 15177.902564 12648.883217 8459.302040 9887.378509 3439.091010 24346.788615 24830.702330 23505.659113 19213.755645 13861.449887 10523.577507 13688.957498 9202.381849 2624.546382 1420.008759 3911.873639 22988.266186 23351.098009 22722.560828 21949.687985 18214.332245 18755.842334 12616.625458 15619.737318 2571.393787 2630.637536 2094.342848 25390.486937 21723.525282 18160.470845 15686.702972 10681.051929 9960.382957 8012.664434 3318.480883 2962.934706 1945.182135 -206.564461 23550.350210 20420.076793 19586.423973 18387.923289 16252.172205 12706.290849 6635.813938 3772.562266 6447.513456 2044.575721 3112.636560 24149.042889 23621.099728 22222.812411 15611.122411 13572.516357 12290.963716 7351.592918 6166.717068 2450.347216 2534.184747 3187.361153 26276.473438 21603.671090 21679.359468 17936.525753 14822.891477 8224.840602 8712.728591 2874.259371 5426.576054 2300.821736 3082.386686 23539.959350 21898.062877 20264.800221 18158.851856 11813.958684 5948.308952 3993.234977 1537.459565 8175.748248 880.941708 2045.840372 23898.653999 22167.504390 21048.248852 15396.110116 12623.792341 11751.679780 6689.028428 5677.975377 2951.288518 3651.179036 2780.849071 23634.538266 20312.979185 18064.182384 14736.942969 9730.203779 10246.544859 9290.643846 5757.378547 4336.310809 5083.822197 2546.318355 22185.644731 21785.517615 17306.004808 16800.536710 12611.693275 12708.620875 7860.525608 3165.328425 6217.885401 4598.113156 3338.816995 23520.302251 18508.368652 17359.662229 19251.813098 16130.565787 7889.184529 11454.349795 5778.956953 5604.295576 5817.256593 3257.729303 20978.215114 18395.637110 18601.696517 14846.075107 16654.898209 9558.201561 12704.567233 4182.239517 3836.631884 4360.652779 3163.172249 22072.099164 20045.227769 15584.775731 15689.085620 12343.017790 13280.198420 8342.572975 9183.142360 1726.376963 3358.115374 7506.111086 21767.105516 20979.300455 15763.245368 18596.782087 17779.499859 9862.435982 6288.803350 7552.738514 6809.827009 6388.085588 5580.336294 22326.111230 18944.665553 18528.154454 13285.384861 11498.761843 10391.794160 10585.071799 5761.371152 6699.991962 3437.010606 5080.239362 24305.183214 24262.139473 20396.541252 17399.627596 13232.007245 10737.238421 10503.388349 5387.258248 4967.426910 4958.774329 1888.180730 23226.711953 21230.418503 15361.713186 19523.446994 13293.950935 12757.299969 9740.848760 7876.408062 9202.401256 4294.487632 2246.675861 20172.735467 17086.581525 18518.999196 15005.589908 13384.995055 12253.254449 8712.888759 9228.358481 4865.276075 7446.696384 4762.248208 24063.286489 23026.989890 18097.718537 15358.485325 15721.868816 12641.575774 11147.835382 8114.574359 5137.385044 4805.919586 4162.239407 21525.554499 19712.925522 17905.847896 17176.090867 14536.982530 14503.399727 11674.444704 8911.877010 3612.236912 6518.915460 2807.552150 24117.094302 21598.395179 20707.909839 19168.997620 18289.969710 14302.955234 11698.738555 11221.256594 7792.520124 5327.852770 2391.822630 21534.085415 20658.373056 18569.461657 16480.528654 14486.742689 16241.297268 13509.490706 9938.212130 8047.088320 6981.935360 4494.697519 22309.482878 20704.923295 19151.256843 19409.973557 19133.883577 14710.630236 14221.156341 12683.038966 9940.390856 4800.028150 5195.503797 23621.743158 22892.851214 22311.684070 19386.241340 17886.121908 14095.919379 11435.812268 9372.160968 8429.532154 8598.752206 5419.141266 23029.543667 20001.933696 21073.184375 19088.021618 16450.223710 11716.217557 10924.296824 8361.427480 6516.836080 8218.322037 7883.498313 25418.575281 24328.200251 21232.000036 20191.739042 19116.032705 15751.005375 13522.874388 10096.361307 9770.862477 2782.297600 7861.166132 23616.816808 23346.220245 23575.353678 22003.303003 18135.037705 15887.561660 16142.808483 11074.648078 12134.297020 8626.446137 3394.587579 26102.220729 24465.386604 21460.595789 21007.558842 18812.744210 17024.788512 13826.883329 12687.916765 6785.887990 8072.354552 9055.416730 26131.383784 23336.702029 23881.373338 24230.372250 22078.510223 17978.917815 13294.658842 10663.520505 7542.017794 4606.784888 2967.679984 26842.315903 26028.888651 22311.640491 20600.855473 20910.955118 16326.672045 13461.673522 14660.067871 9332.494784 10764.257166 3507.554837 27798.209894 25711.184300 26235.568563 20259.959608 17264.934637 13471.153950 10982.119922 12404.841951 6990.331477 10721.442430 -2625.359453 27662.758001 25097.239124 23121.718197 22666.768241 18435.394585 18421.231457 16275.522183 10350.054729 11059.923200 11193.413426 8884.700197 31460.832682 26012.884480 27601.509373 23833.821150 21828.745083 21382.980929 16378.484558 16397.079538 12275.451360 7172.418797 4194.466008 29647.625022 27485.806303 27773.900098 25235.136563 23673.967800 25114.869762 20351.362245 17895.312263 13613.706713 3702.459364 3509.005287 29856.933433 30700.653170 28642.486866 24911.518931 25377.062353 22861.666626 19765.680649 19004.558853 13883.950725 10133.451272 3296.238255 31567.986005 29758.281717 28567.204588 28304.918067 24755.221826 23591.698991 21399.912727 20443.735973 14773.935813 10971.471058 1439.469495 31381.107873 32064.526299 29029.050434 27125.209364 25839.668715 25312.484376 21714.969692 19065.216626 14584.075502 9298.228094 9543.814253 32246.281945 31635.454706 31286.140206 28694.594894 28613.939039 24207.813930 22924.675985 18125.344230 15421.439855 14177.069701 11693.574511 32802.446702 31364.515243 29285.759609 28876.612244 27787.946092 24439.027289 21343.870422 15945.028062 14036.413147 10347.763070 4181.457235 35634.208016 33865.343060 32931.572372 31266.437930 25900.575237 21480.151361 18798.201996 15787.741509 13141.819945 8234.405870 335.968671 35518.471403 33805.337083 31389.809535 30628.507862 24311.470327 23485.828117 20201.523881 16829.864267 13587.948962 11029.313194 6426.084813 36398.770437 33051.032288 33069.485103 27773.815503 26565.320057 25291.146888 20846.725259 18526.091512 14179.900832 6539.473486 -1268.509079 33322.612465 34558.583141 32696.842521 29051.441166 27807.306442 26581.271623 20458.334757 19668.578634 15564.393600 10370.071874 6017.979693 38610.231749 32993.668579 31911.542693 30511.975234 28499.597476 26423.463695 22156.475837 20636.218331 15626.444821 12366.759134 8791.920475 37435.232960 34137.429324 32861.513788 31771.851721 26828.308729 26379.549906 22368.030821 17930.613112 11354.834212 12277.362112 9185.061010 37310.433278 33969.350535 33124.474457 32011.151630 27000.789958 26888.378611 19937.491267 14215.886808 13515.980951 10223.296775 6714.461739 37792.731093 34356.467045 33775.354629 31000.546346 29038.077159 24578.781602 18532.950282 15421.995229 13708.250860 9389.468674 -337.552492 36155.164396 37085.141322 33667.376568 31913.603048 28914.045715 23662.004392 22928.828976 18229.855369 9842.532209 7192.391642 7188.948929 38813.941563 35362.918258 34616.894262 31958.175830 28969.002994 26209.483162 22220.580111 20118.293197 15738.578371 11645.621803 11183.559764 36527.564660 35796.380152 34632.189743 30981.827723 28351.204467 28151.926582 19944.659205 20248.709757 13677.306973 9982.769460 16737.953210 36441.039091 35270.245098 33163.532404 31464.195023 29191.428831 27550.737853 20028.467743 20016.900908 15892.547194 6143.317357 7554.105642 37697.107801 36866.572695 34030.899053 30300.049758 28695.748577 27155.506352 21788.663963 13274.586478 10575.519226 11664.141246 1611.897979 36158.372787 33579.180521 34137.254076 30582.564045 27880.682072 24384.500816 23066.968073 17800.865037 19151.368735 11589.072121 11122.929553 36002.646053 36909.321221 31348.480536 30319.057743 28193.466102 24480.805438 22505.871205 17907.744856 17390.668018 10766.475959 10353.664296 39912.861313 35272.568431 31486.030860 30677.900010 27887.938092 25236.261649 21698.331895 18310.030625 16121.184542 11875.711905 10220.364984 35210.705699 37572.837371 32999.039649 30645.894695 28538.455206 25068.410789 19925.115467 18985.077552 14125.589619 9834.267129 9815.895352 39967.935064 34662.581404 31574.071105 30664.971652 26897.331387 23873.970847 20209.595048 18661.429949 14142.829327 9468.678751 5797.651283 34015.175958 34435.751326 32202.827178 28956.898823 26003.898757 21355.823692 19524.894052 18506.858134 14107.416107 9818.518108 2658.777385 34966.695710 33097.760998 34772.083100 28671.958119 25928.363655 23641.917630 19663.479623 18929.814314 14018.605305 7125.089885 9387.256650 36500.341476 34228.836559 31995.653535 28579.860556 27472.889120 23755.903218 17446.479049 18809.926509 13630.213917 12500.698461 10429.857898 34607.571433 34941.275622 32404.906181 28688.123735 27292.389260 24117.374928 20294.043264 17306.321794 14046.044794 12565.576823 4105.013988 34888.205511 32324.370332 32391.477947 29305.402730 25194.858457 23705.762651 17564.771450 16072.854991 14970.983533 11851.162124 11385.687899 33389.002732 32943.833675 32068.851526 27708.315746 26417.474685 23295.897998 19206.153344 16759.599381 14011.593672 10826.897262 5607.288383 33966.583468 30469.661849 31777.900938 28410.657763 28340.539850 22609.277503 18996.281745 14961.494868 14040.108081 10172.786161 8755.425566 32355.221818 31757.780618 27377.337255 27165.342811 25509.255119 23671.358077 17907.946981 14810.058182 13171.190242 9983.905121 7838.882616 32386.297448 31068.451000 29592.029481 25568.116531 23244.995328 22274.629630 17175.967770 14760.588816 13890.193926 7364.687929 4133.348016 31217.444411 31161.151660 28638.623253 27303.379105 22216.571079 22034.630444 18008.311313 18161.369215 13526.842942 10836.927673 2805.381432 31870.285346 29291.180168 26992.683176 26184.933175 23355.882695 18129.828420 16825.766172 11103.568809 10309.232792 11880.949235 6324.065474 28728.057281 28370.851990 26887.076997 23914.497911 20149.755265 20469.751405 16918.478011 13259.868632 11294.857927 9216.425256 4830.508396 28591.017804 28606.819348 27401.445853 23089.531709 21669.056937 17087.568815 16049.585091 11156.914697 9491.217520 8905.550357 3396.697637 31072.070118 27636.721980 25001.490547 25082.811280 19818.937479 18189.337355 15502.308245 10251.819030 8002.721750 9198.321288 1209.112173 28215.811934 24115.950105 24289.045118 21716.941338 20503.323848 16874.445871 14895.146631 10496.300898 8710.768955 8993.623795 3031.953425 27918.664279 26970.294074 22171.221825 22510.169482 18707.699210 16540.592587 13332.608702 10002.416373 8979.200946 6100.063925 1088.623865 27971.574639 26741.348104 24056.825252 19591.721254 20615.322279 15426.149666 15022.155241 9843.382237 7173.762009 6109.091326 8162.430145 26906.852756 26197.669557 24092.190123 22671.627380 15883.002373 17239.424547 12155.092980 10611.922609 7718.194842 9456.650372 2094.157982 26455.508807 25580.907340 24936.437859 21056.405726 19409.188071 18094.024779 15019.319013 10144.230122 7302.461874 8841.216328 4616.831437 25823.972999 25646.215792 21870.232854 23694.761691 16974.422310 17593.177868 12375.684145 10915.333044 9668.955193 6209.891249 5521.483696 25129.052189 21235.787439 22225.060287 19131.260789 19839.640762 13400.351984 12689.068967 10401.106545 9262.526586 7629.781533 5544.282840 22427.952644 23137.184575 22516.944717 20958.312054 14707.274435 14653.775809 13633.800722 9892.755608 8458.389728 6331.019658 1735.399097 22663.432901 18700.043268 21983.375572 18142.445891 18078.688028 14129.410568 12995.781024 10540.662407 8753.489337 7166.114621 5818.435203 20381.135379 21025.332762 21711.336296 17204.949136 16390.888603 16120.469388 10487.348426 8024.901019 5784.439012 5705.385725 5018.790277 21925.873311 19041.150488 13785.394650 12136.800159 16966.352087 11570.249996 11553.394963 8440.494477 7544.825061 4288.861922 5357.816868 18957.653452 18265.896916 18595.910959 19331.182080 13693.787656 14578.602539 8495.397796 9640.292470 6649.670240 3952.883311 5050.635844 17864.810902 17055.932485 12164.074782 15916.357177 16269.541793 7430.554856 10565.377610 6926.858677 7388.400985 4625.108194 3531.960412 15436.621576 17118.623702 16059.111926 16739.490176 12293.396419 13510.615341 8755.631147 4854.639140 6375.395394 5305.110116 3008.997275 17284.079441 17479.711674 13349.859063 15226.905882 10108.591030 8444.623619 12697.969460 11894.405313 5811.364484 4362.084713 3230.459989 7389.450381 16146.878978 14212.649999 8568.724221 7095.012327 12305.584209 10616.259918 6884.699527 6972.016637 4995.946075 1870.963088 2704.283171 -2377.038418 -10014.008053 12305.467354 3592.485511 12675.786898 10046.097108 5577.895401 11061.678152 9167.969665 2999.352826 7097.011426 3506.060440 2045.073304 2226.941283 1914.986020 -1824.280867 7944.859002 10744.847953 8360.310428 8479.919154 2882.589443 5798.170297 7148.960965 5725.357256 7993.506628 4920.429351 2071.699799 2990.872806 2141.585575 3004.945561 13421.491749 11175.899979 12061.659644 14673.339823 8362.495925 8450.331668 10804.152307 5997.705833 5781.870748 5943.370663 5549.807953 2980.402921 2324.935790 2571.702949 14278.136646 15063.269372 11312.577477 8459.081788 14552.100865 12925.433797 11151.245940 5916.909638 7791.992389 3418.954211 3929.182013 5590.107082 1535.999405 1770.561850 15051.219956 18462.612398 9632.073593 17772.053140 13946.552441 12289.250396 13686.218134 9371.787528 6716.481746 5693.784398 6227.985231 4906.524710 4515.261986 2825.825823 21467.741427 9985.256976 14169.112440 10659.160869 6332.771181 8985.188445 14754.440954 10292.499693 7888.505161 4026.442102 5334.510197 6499.975893 5432.192648 6325.606089 12301.173283 18157.315435 13324.227613 12969.121409 10982.535690 13709.822738 13967.018631 9816.570158 5249.848182 7529.516362 8002.519699 5795.907029 7236.426742 9059.974013 17124.556343 15480.229331 4191.705766 7515.610592 15745.719804 3723.990591 8872.825050 6433.561825 9358.027462 10834.574683 7356.765935 5662.467038 3659.931590 2808.366455 13097.926228 10173.685530 11284.280409 6734.452818 11752.997049 7683.832309 11909.186670 10585.970602 8113.008701 2363.613398 8707.072328 2991.750817 5903.546718 1812.625413 5802.312911 10738.613136 12350.178817 6438.869496 5413.649427 7752.856544 10574.159454 11478.665645 10432.739512 9009.678894 9789.432467 9501.966771 4014.091510 3768.236978 14148.643672 2754.619876 8930.289839 14884.724378 4635.818894 7429.706229 4727.767231 8682.478043 8712.415191 7997.370050 6165.937431 7402.056416 1597.491135 5180.266436 8592.062074 2366.488420 1582.890754 7030.207596 2702.907684 5467.549595 6932.904056 9071.381251 12736.258667 10771.870244 5539.536887 4531.795253 1965.096666 2466.460401 2460.399400 5908.787458 4318.356173 2863.529267 6736.990716 1047.760094 4660.034419 4230.051479 3495.515089 7161.624816 5486.904180 902.208578 3889.071428 5911.997740 915.149855 4374.146803 647.078294 1955.173594 2265.062564 3760.824784 5071.344820 1752.157820 1287.420561 3786.655720 3556.416295 2894.889496 2448.109411 2352.344970
</DataArray>
<DataArray type="Float64" Name="Velocity" NumberOfComponents="3" format="ascii">