<VTKFile type="PolyData">
<PolyData>
<Piece NumberOfPoints="1945" NumberOfVerts="1945" NumberOfLines="0" NumberOfStrips="0" NumberOfPolys="0">
<PointData>
<DataArray type="Float64" Name="Pressure" format="ascii">
 3025.552835 4701.160410 5081.353657 8906.743532 8916.175944 11782.718913 11787.979535 13723.394111 10209.358670 14110.013424 9638.413257 13076.432040 9597.813744 12065.058433 8864.892610 11027.566476 10169.148974 13928.554507 9852.167119 13385.145321 10238.083467 12032.238285 12696.381592 16152.575710 13591.863866 16346.751250 14802.491195 16703.879887 18133.794186 20500.997299 16645.406115 18922.944229 16787.920220 17543.508149 19628.710662 21775.458180 19719.286518 21012.319523 19665.836967 21054.401438 21375.445328 21129.227356 25367.409348 25070.193376 25176.775441 24026.581955 24002.963862 22484.628757 24495.293828 23500.957486 26408.590086 25877.894756 26970.284973 26684.964259 27464.706553 27197.625401 28585.318084 28648.986340 27850.518101 27599.197726 30855.576866 31892.181211 30996.541632 31530.906334 33475.082015 33216.498774 33700.167247 32473.744747 35778.287873 33823.650044 36435.008804 33840.228518 36507.070794 34003.163244 34314.429171 32069.939839 31812.448760 31424.501289 32332.305813 32108.563072 36530.969888 34928.597228 38968.310956 37034.266148 38834.292253 37597.325192 40070.375940 38258.655018 39131.132346 36047.860687 37837.892567 34630.664795 41766.820861 39120.556615 41741.151380 38987.923673 39586.625068 36341.494788 41229.142409 36521.042846 41933.606365 37377.082686 40922.043061 38910.564869 42152.654835 37936.575398 41788.002993 38721.435626 36830.351928 34275.203019 38205.342886 34371.676142 44762.830890 42385.940246 38375.225789 35878.066729 38707.835821 36954.607605 40334.342213 38859.879651 38453.742603 37760.821605 38085.781169 36838.119945 37888.440452 35237.148232 36506.090079 34385.064378 36740.220985 34396.122394 33504.334992 32915.350803 32180.801669 31059.698652 32234.813241 31200.234526 33197.853728 32249.339135 31045.113446 29420.470528 34687.665639 32995.356928 30689.946722 30601.294438 26997.627527 29081.874192 26992.108421 27124.692204 28096.926055 30319.487509 26970.267538 27983.610743 25974.173740 27370.955611 26699.026495 28402.408130 24839.726998 25296.148051 24913.712837 25956.532268 25201.017985 26321.318718 26026.195126 27083.296058 25402.607460 26560.103893 25129.020116 26639.720266 23589.447823 24790.431072 25018.708107 26546.161788 24862.169554 26303.630743 25276.601183 25682.546435 25805.969790 26568.162429 24639.749467 26132.352914 23622.944710 25199.040747 22770.252449 23976.241951 22766.690962 23369.055660 23853.166971 23382.014371 24584.249491 23455.479167 24744.978910 22521.738223 26423.691755 25855.543617 29135.049450 26469.566274 29685.634852 25533.312706 26985.672598 22576.545769 27471.944391 22146.515184 26242.877678 21573.569488 24174.326018 20080.995651 28726.937171 25587.547599 33840.742572 31985.378159 6066.376261 4168.535604 1885.660206 1023.222306 766.975730 -920.409039 1090.220762 -38.372858 -2962.167511 -407.177300 2270.016418 -1930.526800 -3465.520662 -1543.358387 5.808981 -2361.638287 -5536.243357 -5043.032037 -3543.814303 -5362.089359 -9031.599318 -9747.702552 -9223.524386 -8549.226788 -7815.512244 -7048.719082 -6280.167429 -5534.864582 -4829.954305 -4176.156007 -3579.473338 -3042.477246 -2565.211600 -2145.866150 -1781.311202 -1467.537306 -1200.015880 -973.987207 -784.681515 -627.480723 -498.030035 -392.308939 -306.670528 -237.856805 -182.996257 -139.588701 -105.481450 -78.840824 -58.127413 -42.114404 -30.206430 13635.749410 9686.413495 5640.174359 5892.208654 5654.659333 -70.496071 5971.521524 -1440.881802 -8097.150125 -903.741061 3081.328850 -3199.824904 -4329.388021 -1205.233865 877.146610 -1929.538059 -5904.990838 -4767.765364 -3005.887280 -5348.595129 -9423.497196 -9542.535028 -9100.127872 -8516.750736 -7805.638960 -7048.536160 -6285.803960 -5544.181576 -4841.452002 -4188.774696 -3592.469742 -3055.328961 -2577.553551 -2157.450885 -1791.982656 -1477.211170 -1208.663336 -981.620939 -791.343827 -633.233756 -502.948013 -396.472226 -310.161201 -240.755440 -185.379653 -141.528251 -107.041659 -80.075569 -59.059574 -42.607054 -29.162817 22445.945374 17595.006496 15694.639356 12500.105682 12673.815928 12896.298815 8663.313527 4651.296975 8997.810908 8810.255667 7205.306379 4174.026949 2197.145059 1392.940231 1042.135720 866.062533 739.789698 622.571808 509.454892 405.598021 315.776379 241.767345 182.847401 136.978263 101.755815 74.938983 54.652631 39.407089 28.042190 19.656149 13.544393 9.153963 6.051053 3.897457 2.432464 1.458093 0.826585 0.429716 0.189780 0.052125 -0.020857 -0.054448 -0.065202 -0.063644 -0.056223 -0.046704 -0.037140 -0.028525 -0.021222 -0.015227 -0.010237 29170.410711 24622.574740 22034.889302 19505.103201 17192.880111 15437.838568 12773.297671 10420.804200 10420.377928 8907.135067 6455.727917 3972.815475 2342.544694 1490.610581 1088.430285 882.886756 744.456101 624.081721 511.167375 408.113570 318.740105 244.713366 185.474493 139.167474 103.507987 76.311024 55.715926 40.227278 28.672711 20.138477 13.910510 9.428896 6.254768 4.046081 2.539048 1.533117 0.878340 0.464643 0.212781 0.066849 -0.011748 -0.049053 -0.062198 -0.062128 -0.055593 -0.046573 -0.037264 -0.028759 -0.021492 -0.015554 -0.010986 -22.713075 -19.407797 -20.986858 -18.034522 -16.278240 -14.822795 -11.274763 -11.151774 -8.007012 -8.060232 -5.682305 -5.746156 -4.010123 -4.061202 -2.811047 -2.849138 -1.956865 -1.984676 -1.352792 -1.372876 -0.928746 -0.943124 -0.633260 -0.643470 -0.428857 -0.436050 -0.288480 -0.293508 -0.192762 -0.196249 -0.127955 -0.130356 -0.084383 -0.086023 -0.055290 -0.056402 -0.035996 -0.036745 -0.023288 -0.023788 -0.014972 -0.015304 -0.009566 -0.009785 -0.006075 -0.006219 -0.003835 -0.003928 -0.002407 -0.002467 -0.001501 -0.001540 -0.000931 -0.000956 -0.000574 -0.000590 -0.000352 -0.000362 -0.000215 -0.000221 -0.000130 -0.000134 -0.000079 -0.000081 -0.000047 -0.000049 -0.000028 -0.000029 -0.000017 -0.000017 -0.000010 -0.000010 -0.000006 -0.000006 -0.000003 -0.000004 -0.000002 -0.000002 -0.000001 -0.000001 -0.000001 -0.000001 -0.000000 -0.000000 -0.000000 -0.000000 -0.000000 -0.000000 -0.000000 -0.000000 -0.000000 -0.000000 -0.000000 -0.000000 -0.000000 -0.000000 -0.000000 -0.000000 -0.000000 -0.000000 -0.000000 -0.000000 -0.000000 -0.000000 -0.000000 -0.000000 -0.000000 -0.000000 -0.000000 -0.000000 -0.000000 -0.000000 -0.000000 -0.000000 -0.000000 -0.000000 -0.000000 -0.000000 -0.000000 -0.000000 -0.000000 -0.000000 -0.000000 -0.000000 -0.000000 -0.000000 -0.000000 -0.000000 -0.000000 -0.000000 -0.000000 -0.000000 -0.000000 -0.000000 -0.000000 -0.000000 -0.000000 -0.000000 -0.000000 -0.000000 -0.000000 -0.000000 -0.000000 -0.000000 -0.000000 -0.000000 -0.000000 -0.000000 -0.000000 -0.000000 -0.000000 -0.000000 -0.000000 -0.000000 -0.000000 -0.000000 -0.000000 -0.000000 -0.000000 -0.000000 -0.000000 -0.000000 -0.000000 -0.000000 -0.000000 -0.000000 -0.000000 -0.000000 -0.000000 -0.000000 -0.000000 -0.000000 -0.000001 -0.000001 -0.000002 -0.000002 -0.000003 -0.000003 -0.000006 -0.000006 -0.000011 -0.000011 -0.000020 -0.000020 -0.000036 -0.000037 -0.000063 -0.000064 -0.000109 -0.000112 -0.000187 -0.000191 -0.000315 -0.000321 -0.000521 -0.000531 -0.000847 -0.000862 -0.001356 -0.001377 -0.002136 -0.002154 -0.003329 -0.003282 -0.005278 -0.004721 -0.007215 -0.006089 -0.008095 -0.006858 12750.214145 12562.995200 9873.937174 12571.024128 12102.302367 9599.754981 12609.222749 9533.704794 8506.571871 9642.734176 4762.983019 13895.125744 11417.489212 17430.290455 14740.767888 7527.217025 8615.127944 10007.613009 10470.969062 10403.621341 9696.921675 11384.913718 13689.413916 14667.820410 13236.353497 9951.187499 12246.466335 12749.102197 9634.146487 8460.203865 10704.573234 5523.918376 10430.433451 15858.454562 13739.057499 14701.511264 15101.103235 14188.367201 14957.128259 12522.693810 7789.092270 14482.795888 12697.110271 8922.267188 17664.130491 13086.005010 17272.381299 14100.028720 16703.408849 13932.008815 16372.123236 15513.085584 9485.321758 11310.184163 11165.689071 18415.337055 18838.182736 18926.145350 17291.123723 19688.454080 17187.777516 17085.988733 14651.219839 12782.895460 9916.657429 16687.494668 17340.393390 18359.596611 17576.235418 21296.899800 15813.692577 18121.504641 18201.193626 19292.572657 15168.807879 16033.864064 12380.064074 20668.827455 19236.054207 18746.240381 20912.863255 21080.178801 17664.688255 16890.291587 20948.844193 14992.310625 16086.985388 15529.008929 21380.330993 22223.263006 22372.459422 22417.841936 23847.372094 21849.137269 22380.700432 21377.771556 21091.000175 17973.567754 13760.224295 23124.537470 27052.399840 22869.680075 23597.413557 23650.363399 26702.921229 19948.483798 20414.869012 20478.631187 15237.916240 17181.586495 27905.232293 23638.616124 24594.417102 18790.483638 26782.296269 22159.300133 23647.238915 15791.959762 20465.812761 16389.469179 14825.524968 26647.531612 26944.220666 25291.060672 26132.769415 19919.363570 23990.035234 18060.842796 21959.549634 17929.510459 21276.101396 15786.667449 29758.692708 26507.461068 26026.758562 22626.532451 24874.987776 23827.997206 22975.807202 18873.133472 21104.520952 17842.959500 11037.868875 27686.858998 28566.109083 30237.633021 29049.142734 24975.784261 23584.135392 20926.409594 22311.732174 20954.922802 7755.811596 5246.974945 32042.624794 30539.829770 29270.180159 27240.029156 27303.637304 25937.935300 18965.029488 20323.640067 8451.783840 12376.850121 2393.127153 31753.561182 30101.809826 32042.442945 24753.860203 18085.546886 16222.909526 20078.204951 12923.947154 7604.274634 1250.768846 2375.288391 28289.755141 30992.098470 26863.813333 26376.781559 25295.484370 23662.663136 15379.328002 18903.044264 1511.865620 4026.812290 679.932784 32143.176106 26814.371525 25729.687292 20264.332136 16434.970274 11588.599712 12071.394414 6200.252679 1136.337393 845.907295 3736.532645 32298.851311 28825.067355 30567.606712 25364.407927 22338.036111 21250.605775 10887.649031 4981.634125 4285.952770 2428.706099 1565.747461 31319.218541 32108.195683 27806.605200 24357.762570 22606.480713 18032.671340 12262.948656 9832.884194 1196.070990 5854.425942 1251.368405 30400.026116 30745.087793 30282.181331 26113.655156 21872.181909 16555.270678 11914.180464 -1490.556800 5937.867374 1346.266413 1268.150298 32810.501743 31835.169736 28609.044092 26911.977926 21979.957889 11953.449828 5196.271768 4998.692690 9010.548085 2184.897897 1669.690751 32913.185522 31842.247620 28889.214223 22997.572243 19597.547918 16988.124575 9816.286233 9358.742789 4031.276616 2744.676911 -887.236632 32608.994378 28173.960721 28772.691308 23458.635528 16021.226106 15794.792005 13500.870815 7759.629464 3100.636294 3119.146484 -180.221171 33487.111515 29219.986276 27409.320938 24722.526939 21718.734640 19494.385360 11493.691346 1392.838258 3063.646099 2047.204989 1347.407052 36041.516121 32169.814324 27868.608352 28941.675083 26290.705174 12787.490488 13882.336433 10201.327857 8115.983202 8555.110986 2335.493484 33713.346255 31060.324295 25272.731957 23219.555759 24810.595847 15173.243984 19942.629567 6808.045183 8212.949605 2111.366625 2144.671924 34400.027962 32738.234187 27414.200062 23563.009293 23483.449190 21712.478099 13952.274281 7711.048385 2437.886643 -1594.136103 6044.136380 36291.954571 33368.178370 31752.983234 25312.682547 25571.521419 14028.184173 8444.053658 14688.707220 9955.253898 6015.659405 652.755786 33626.356890 29476.807289 29950.375962 21495.634491 18570.087804 17288.914910 20362.358479 10872.329960 8922.011513 4165.345532 3941.252809 36032.581735 32297.430602 30943.282750 26019.935595 25828.988178 18019.403846 17914.059289 5501.777695 6440.499905 3909.002763 4658.539406 35851.254128 32679.582678 30638.793482 32342.698906 22282.951661 21041.970499 12664.166909 11851.785353 8550.569951 3752.603724 9321.453166 34358.733317 29004.452473 30023.423548 25887.990504 23135.899422 18640.155934 15583.437982 14296.766810 8013.017818 6608.811569 5742.354007 36945.485146 36075.959065 30093.420031 23211.715298 24573.804428 22187.828833 19380.344399 11783.666568 10607.963107 6649.981379 3269.433453 35624.275681 31999.785796 29100.110663 27469.400983 27234.297686 19463.697609 17169.102175 13412.497854 2233.661231 6770.306931 -4996.324305 37420.031944 35270.586455 32214.770666 31863.736458 26591.342248 24267.222543 19289.885541 17098.858891 11574.401807 11527.959115 -648.508688 35545.578625 32840.662026 29498.011503 24698.727352 27405.914413 26373.665933 20271.378506 13456.477728 10408.180402 7700.372643 9056.341576 35684.688843 31320.691977 34142.301025 30105.564874 26278.739532 22612.428388 18266.683420 19834.203834 11164.240617 8212.040437 9524.739861 36341.001006 37478.443712 31867.988025 29533.993962 26092.007759 18756.767354 20893.742674 12447.693816 9952.227881 5390.503931 -7883.759146 37432.648872 32891.994592 31073.914718 28370.239043 25187.777165 17564.148414 16100.149020 8429.735828 10547.002356 7646.145454 389.903786 38200.453614 36587.365243 32047.317867 30465.552602 26817.985377 23060.237266 17177.261503 14140.112394 13800.255725 3635.337708 3042.108361 34544.867291 35861.346429 31569.828291 28859.807156 28528.741147 20810.483400 21457.466693 14480.049170 10665.658216 6100.958695 5497.993407 34764.774906 36764.516556 30665.700526 27523.120537 24151.998259 23976.788090 16984.701306 12399.324193 7928.828158 10591.274626 5922.247350 39833.681797 35837.234044 35767.610767 29317.910503 26349.970292 28151.365998 14313.637168 10654.160721 9487.634747 6202.076733 -8780.784890 37317.522187 36871.010825 32957.579859 28923.631336 24715.655641 20954.900118 17915.315242 9985.394183 9718.829990 6516.841444 7685.040414 35938.760606 32524.379836 35179.332568 28234.139118 26063.747513 19063.375012 13232.573820 13486.037596 4195.029631 6025.009285 -6900.359272 37224.277910 33242.188826 30114.344784 29760.133762 26723.793773 20587.915857 17556.032207 8191.176558 6978.439938 6295.890314 4422.658997 37429.795199 33202.395815 31818.507571 30319.373845 28161.025396 22220.314174 13764.471352 13291.604900 5890.164969 3350.513169 7782.692820 36111.858954 34121.226866 32523.060241 27363.590214 27830.018998 24183.784117 15807.635557 14571.081003 7503.915986 7490.611138 2150.349550 36861.182054 34481.101789 32707.681831 27703.400288 27167.174498 23263.723080 17028.358519 18201.689079 8686.958242 7396.416350 2211.149506 37057.161234 34835.767032 33330.127037 29132.070536 25557.553332 23433.065069 17417.338207 12957.091840 11449.377021 7950.717394 12712.163943 37774.695954 33490.653025 33058.710258 28923.498802 24374.844416 24849.792181 18084.197113 12333.492191 10654.786788 7876.241357 7249.681914 36564.542475 34647.378193 32786.306654 27651.508928 23662.234408 24478.994053 18081.345457 13337.492673 10366.558527 9234.552253 11845.187424 38031.612462 32568.142072 32753.001884 28725.896308 24752.500098 22124.077035 18811.928818 11402.348766 9869.940122 12808.120421 12314.162092 34727.561639 34258.564437 30636.344648 30383.112802 24257.984634 20016.170220 18877.009060 13085.846554 11357.059301 9330.862377 8784.147559 33826.169398 33821.130963 30357.091925 28429.825136 24554.096817 20118.956852 19206.919479 14431.222257 10068.907915 8170.199004 1555.749408 32993.260847 30299.745428 29573.056496 25513.189042 26057.615617 20262.006327 18511.767830 13443.192474 9460.451350 11178.921296 13055.120659 32216.771954 33179.606522 29707.509785 26815.640291 25828.633708 20423.376907 16436.789127 13243.812685 10703.633266 8512.783969 13797.906410 31823.091311 31433.036451 31956.556156 27679.760399 23372.380008 22254.941491 15085.680482 14253.942377 11451.230209 13421.734793 3982.744976 31663.797594 31908.453813 27925.993570 26808.753737 22603.716338 24126.431339 15148.706899 15213.812490 11049.918092 8498.124457 14770.676293 29960.095860 30109.974619 27316.245580 27251.022527 21412.458139 23884.642304 16331.904611 14055.412906 12736.144462 9282.476502 3092.599860 30696.133481 28883.726857 29475.082194 28526.437240 21917.714712 22201.748381 18549.332998 10784.577826 13644.191470 7588.264319 6404.862834 28989.989689 29288.792299 28956.217988 26879.866429 23391.258680 19936.523893 20164.916345 8254.481087 14933.483425 6702.149297 9598.320556 29578.753493 27571.321189 26828.330229 25863.372826 23171.623889 18788.618677 20804.331006 7915.586727 16489.393389 10446.744182 8496.005685 28821.677005 26914.036173 27062.585346 23841.855007 23737.204269 17268.731829 20444.843346 9903.624888 16509.291982 12683.420154 7167.948717 28968.118701 29086.213613 27694.419122 23393.185002 24055.671806 17219.712432 19083.575658 11928.637367 12971.302449 11342.362233 5236.840768 30929.688096 29237.287061 27273.555353 23833.087519 22742.626273 17725.680467 17370.439082 13297.049009 8951.819159 12435.360736 4396.071453 27202.947390 27548.351027 26903.102327 22240.645604 22092.882423 17542.422258 15666.664771 14428.725996 6353.311885 13250.411592 6549.812719 27789.757127 25851.768153 26364.891025 23731.435639 21239.824889 18466.579030 14049.942487 15261.616519 4854.159515 13780.473073 9355.503219 29612.284896 25932.537853 26010.550400 23149.816483 20279.346815 18353.304808 13273.402842 15258.544762 3988.041985 13760.579290 9316.770332 28475.394199 28249.927979 25801.213398 22099.618268 20751.389936 18079.732946 13901.027600 14368.429109 5155.000081 11289.078760 10977.926914 28373.850400 26925.562961 24355.162200 23608.690354 19797.819970 18095.958945 13305.009921 13294.516458 6363.956294 7739.045124 12101.934117 26366.678371 25469.355040 23961.655397 22686.851704 19580.966687 17901.212284 13537.589184 12581.527488 7365.058250 4997.489485 13122.884424 26048.890815 24884.083853 23629.438733 22094.024092 19432.307908 17279.389795 13213.949774 11604.808471 7589.957479 3706.802145 13971.274807 27912.212697 24712.366888 23424.158789 21477.123901 19223.066592 16558.805949 13294.599628 11119.845448 7480.693729 3400.164233 14361.199121 25995.757561 25658.324660 23631.784212 20970.243163 18532.941567 15848.715707 13133.655414 10204.166493 7654.086320 3475.965483 14469.906625 25287.100511 24215.585865 22797.324410 20314.529501 17846.799847 15857.714015 12982.309173 9918.313297 7978.829637 3577.434530 14361.105021 24077.373947 23832.312680 22575.002979 21474.634487 17597.231068 15618.305553 12467.215435 9749.001664 8444.175030 3692.238427 13509.803723 24884.444605 23123.646092 22249.546914 19967.273584 17538.211773 15224.079134 12803.529378 9354.886885 8211.646112 3846.720327 11847.508478 24265.823941 24241.412884 20469.562014 20745.632454 17865.002502 14523.802763 12574.790314 9303.059384 8211.853598 4037.846375 9870.547136 25328.166044 22658.476223 22072.989255 19678.449695 17028.179047 14948.987575 12191.674448 9360.808023 7560.584726 4324.078572 7753.233332 23192.894057 24354.823082 22310.681964 20202.098221 17874.624583 14373.323281 12057.068354 9276.185673 7524.248012 4468.536944 6289.261537 25084.512853 22935.132660 20208.112181 20100.441290 18084.332710 13923.935309 12524.675301 8846.801398 7295.502726 4240.315541 5282.005896 23509.179615 22584.635625 22150.470640 19060.084298 16442.731963 14506.267963 11317.234828 8935.941635 7161.029955 4053.170872 4808.476363 24156.267859 23074.401201 22452.616622 19458.381280 18134.532162 13970.439702 12165.012342 8798.908193 6830.737641 4782.159291 4227.506016 25447.513271 22619.047564 20177.501406 19781.310372 17439.540824 14209.466242 11220.527463 9336.283655 6615.777085 5245.982664 3695.606669 23457.086451 21617.445522 21046.174475 17428.892302 17626.553238 14799.037991 12233.420306 8462.774411 7101.972154 4901.661292 4693.086462 23329.998179 22568.652581 20482.704359 19579.475078 16372.950378 14809.758982 12424.986893 9283.798251 5428.669755 5565.123698 3479.242986 25515.441929 22389.909390 22026.286067 16794.921866 16023.657079 12026.829535 11996.108387 9673.214515 5872.498815 5644.120997 3106.049601 24021.583092 23137.616695 21029.276541 19584.315538 14962.509112 14481.864679 10643.358230 8269.702043 6944.111374 3392.155616 4579.630935 23857.458542 21610.409132 21507.013130 18627.745624 18049.775511 14531.186093 12973.402080 6659.381408 6686.538931 4523.368647 3072.164519 23203.652558 23350.809821 18868.629176 18989.355188 14912.879363 15630.950205 12991.476085 8910.100592 7416.628780 4987.760100 2617.473739 23136.142457 23615.706091 22935.374474 18518.065551 19994.546022 11126.016189 10766.631920 10422.497133 7897.074134 4368.216975 2099.577624 24713.330664 21271.705447 20453.120868 21852.558128 15688.573532 15609.959447 14085.444716 12778.960391 5255.827411 6552.936235 1369.014753 26748.463568 20598.184132 22648.903326 17752.376020 17555.070753 11186.848967 15080.460254 11664.259130 9076.236672 6771.656644 1999.739141 23765.707070 22288.621283 21569.017655 19553.733937 16771.505931 17648.449698 12196.798388 8376.587312 3199.544001 5805.984414 1294.501820 24243.957513 20962.791155 19618.544564 15807.173164 21178.951798 14349.615686 12756.505706 9129.590353 7359.982812 5693.573583 80.600580 22018.283965 19742.921395 20074.801577 21082.724545 15179.738250 16643.750917 9032.421625 13757.883982 8395.441362 4892.544293 902.403415 22924.527511 19376.567844 17209.032699 18090.752939 14900.697162 12096.249746 11944.467897 6399.377490 8434.800373 5100.822797 6584.191578 19460.638802 21146.832752 20289.191604 18379.410499 14339.231351 15878.254387 10563.383840 4488.056893 9515.543515 3492.222348 1254.274389 24689.531930 22240.565468 18153.255970 15128.807623 12237.894761 13720.385204 14946.124415 13451.424634 8806.151189 3732.636476 2943.256245 6954.539038 11740.454381 7985.264594 7993.664832 4591.199017 7214.580097 5944.073815 3248.303049 3332.850456 865.591352 553.140199 1524.293140 -2150.053299 -4180.126152 8849.131710 3195.148426 7736.175392 6749.660673 6473.529313 5874.836108 6543.547233 3983.101880 3736.041654 1668.982565 -1545.095627 2913.919990 1400.451637 466.270574 6341.842233 9088.151662 7613.230972 8270.963456 5061.686181 3562.144382 6539.182629 6989.828407 3813.650497 907.070981 3311.755787 1839.739343 880.664495 754.491914 10222.443951 8337.495650 8539.711445 11604.483607 6077.084015 10920.523629 5879.342266 465.298807 2905.523989 4686.852733 1567.912079 987.753627 1145.745483 1732.491222 12342.811393 12153.977817 11761.014664 7892.881142 14466.165872 8166.553838 6818.828805 4417.519064 3875.713465 1859.734594 4736.939813 2495.810094 1941.521238 1414.526187 13131.994832 16174.583956 9707.096637 12723.971495 10777.033404 8482.069334 8089.456820 9387.681199 5692.171180 4208.056339 5821.946754 3470.824925 2593.464652 901.329637 18699.521237 10352.437022 13588.286097 10089.886638 4500.315943 7550.072512 12231.615150 8556.632998 4685.987157 1908.647771 4228.509279 3185.656715 1577.033869 683.839416 15795.346332 17433.811398 12897.672476 13539.967506 10534.314030 13854.094218 11073.531336 7967.377368 4373.060999 3703.018791 5543.226918 2542.690712 3783.642276 2099.772289 17852.085119 19032.665158 5714.996449 9318.156201 15705.328178 9478.327056 10286.797255 6203.705917 7594.045639 8494.862085 5952.527079 5574.702875 3908.044352 1609.693582 13124.029451 12307.052768 13082.884288 12473.977292 14117.321142 6523.881453 15089.359483 11510.386127 8476.958756 8238.364099 9193.882695 3295.547818 4757.337035 5424.065173 9776.482268 17619.520878 15691.541232 6291.264436 8303.545668 8335.020823 11762.401345 12279.023674 8658.338117 6997.958985 6865.107630 3058.364226 4938.573889 11663.308637 17557.161329 4042.800243 9370.534332 19191.485434 6631.025988 7278.670608 8603.236752 10173.784603 11329.664237 5766.346797 12472.062157 9110.761509 5051.428085 10011.715027 10920.253640 5812.225251 902.644306 6803.197316 3442.627355 6346.279264 11235.245530 13438.465471 13235.501886 12839.049218 7582.572055 5719.598019 10623.579469 6688.514453 2084.118767 3714.089702 1018.569589 5664.726604 6165.757220 -690.809535 3489.926923 3596.202359 4870.102150 7785.455890 5388.173562 1423.723375 5065.083939 7638.066164 1237.074526 3081.479733 77.639100 2663.594962 2475.482371 1328.516895 5876.568936 458.893253 1166.466541 5102.792904 5321.358457 2360.571633 4314.111744 5272.744516
</DataArray>
<DataArray type="Float64" Name="Velocity" NumberOfComponents="3" format="ascii">