<VTKFile type="PolyData">
<PolyData>
<Piece NumberOfPoints="1945" NumberOfVerts="1945" NumberOfLines="0" NumberOfStrips="0" NumberOfPolys="0">
<PointData>
<DataArray type="Float64" Name="Pressure" format="ascii">
 25634.025296 30385.491621 28216.601163 32267.215765 25916.115250 27924.546328 23317.646697 23611.112779 24766.366941 22466.757385 31059.735169 27548.763564 33567.817114 29860.214708 29385.707679 25255.367987 25321.569832 21800.353006 23754.882540 22186.390897 23474.082176 22718.280721 22898.152895 21129.961964 23521.026147 22437.142131 22442.768419 22158.100789 21531.194619 21747.202077 23735.865710 22808.253491 23793.680420 22577.445200 23962.524738 22966.064404 23545.934069 21124.433038 23655.805896 21690.014609 22544.871967 20538.882813 23552.217739 22024.932983 25321.869304 25027.323510 21925.569612 20276.857905 19988.849801 18276.066902 21169.799603 20204.977950 22063.225202 20984.210045 21027.728224 18892.681510 22006.211992 19891.655841 21897.402841 20159.423078 20414.508094 18726.495241 18647.777436 17131.650958 18813.194388 17439.553052 19998.618663 18749.553950 19382.077145 18085.520724 18185.544149 16877.742006 18369.287971 16234.190039 21167.265972 19176.101674 20884.297410 19010.964504 18013.565669 16066.538533 19469.641879 18514.363666 18193.267954 16777.175941 17936.526273 17038.272078 17234.441360 16304.556351 17589.961883 16148.717676 17360.091533 15974.281523 18013.166982 17495.790746 19428.397151 18339.259980 20479.441013 18866.101459 20864.620570 18179.425888 22963.852675 20673.939557 21692.707158 20664.609615 18272.198581 17416.935616 17153.972636 15853.582539 19044.649067 17286.224978 20358.624839 19498.417804 20442.654638 20067.280065 23993.637031 23229.766654 21954.646559 20488.994291 22191.948660 20666.872803 24485.665133 23639.711828 24845.913987 24181.844874 24096.237737 23142.863762 23942.712104 22398.783173 24695.362669 23779.537858 24849.311059 23329.528674 26757.488174 24866.948448 29525.371254 26968.489861 29420.032188 26539.119644 31515.824466 29758.088108 29469.444817 27712.035932 32199.448704 29885.595340 30960.730375 28105.954658 32322.303909 30364.071033 31300.119451 28677.832330 32546.595132 30891.985629 29739.966499 28897.111759 28642.034922 27834.385061 31421.880363 30533.613081 30578.421106 28281.207813 30122.413171 28166.004060 28450.105536 27171.254132 28089.722260 26584.219572 27684.388890 26070.635515 26494.479434 24906.934525 25675.884476 23941.073718 24924.166322 23488.936175 23247.572336 21532.355659 24320.502963 22618.485071 22142.844905 20034.549486 20772.330698 18876.717533 19997.825908 17969.639735 18802.210467 16411.398826 18321.188190 16469.507023 16313.686407 15652.275916 14841.957040 14879.460461 13400.760920 13253.955746 13518.339019 14456.622099 12852.765504 13278.477407 12899.256162 11798.199827 13731.470826 13129.921512 11829.127633 11685.452609 8470.443522 8376.261368 7672.438648 6700.755670 9252.717847 7959.199055 29573.593548 25975.637923 21350.475941 15751.309007 12456.110734 10510.705173 6488.304912 3164.706004 1911.774821 2357.509031 181.119021 -3503.646256 -3123.170086 -1105.710229 234.183386 -1949.134989 -4910.540489 -4654.590464 -4578.067720 -7382.977239 -9184.791126 -9319.593599 -8920.477035 -8346.460469 -7705.257898 -7025.495673 -6329.404852 -5637.954060 -4969.111629 -4336.610163 -3749.837929 -3214.349788 -2732.592553 -2304.630862 -1928.786586 -1602.169897 -1321.106947 -1081.476969 -878.972228 -709.292965 -568.288202 -452.052171 -356.985133 -279.826294 -217.665435 -167.938785 -128.413823 -97.167780 -72.570167 -53.317764 -38.840219 29379.262411 25939.457443 21343.543084 14125.322693 13144.303454 11925.013501 4300.114880 1754.667947 2074.478864 2880.674525 381.236450 -3607.920564 -3048.307764 -942.261896 -313.904593 -3236.560972 -5656.776025 -4390.596980 -3107.773408 -5139.963227 -8635.041308 -9028.438156 -8817.960778 -8316.510596 -7694.681375 -7022.477815 -6331.220707 -5643.484358 -4977.394400 -4346.728792 -3760.992082 -3225.896298 -2744.046340 -2315.645398 -1939.128492 -1611.694711 -1329.738388 -1089.189905 -885.778893 -715.231898 -573.415454 -456.434422 -360.694400 -282.935957 -220.247312 -170.060978 -130.138713 -98.547192 -73.619831 -53.857686 -37.503233 8298.213769 8552.436423 6673.759408 6238.669782 5276.755696 5012.024806 3897.848939 3072.812589 1518.021792 516.025141 761.614503 2293.343775 2391.037632 2004.334346 1565.311993 1198.394827 923.374087 722.061702 571.120778 453.300458 358.389088 280.916375 217.819100 166.986658 126.605701 94.973955 70.509404 51.801402 37.643247 27.035740 19.170215 13.402115 9.223057 6.235419 4.130780 2.672158 1.679464 1.017588 0.586611 0.313793 0.147071 0.049855 -0.003072 -0.028719 -0.038287 -0.038952 -0.035155 -0.029528 -0.023535 -0.017888 -0.012720 7960.634023 7949.994934 7013.970071 6173.555730 5339.269377 4822.849031 4002.102878 3227.282176 2556.332757 2218.019752 2284.511115 2448.273840 2345.373510 1987.448741 1573.006946 1214.095888 937.899955 732.755095 578.382484 458.299807 362.094473 283.893199 220.326050 169.119599 128.399614 96.453677 71.706142 52.752987 38.389539 27.614438 19.614496 13.739904 9.477269 6.424601 4.269827 2.772961 1.751448 1.068153 0.621495 0.337385 0.162672 0.059909 0.003209 -0.024947 -0.036141 -0.037826 -0.034645 -0.029373 -0.023581 -0.018106 -0.013498 -29.647027 -25.580140 -27.458161 -23.814141 -21.531972 -19.722705 -15.175590 -15.019934 -10.950026 -11.015516 -7.894907 -7.975085 -5.661890 -5.727016 -4.034531 -4.083870 -2.855960 -2.892580 -2.008312 -2.035209 -1.402953 -1.422545 -0.973658 -0.987819 -0.671338 -0.681496 -0.459907 -0.467139 -0.313051 -0.318162 -0.211739 -0.215325 -0.142316 -0.144814 -0.095060 -0.096787 -0.063104 -0.064290 -0.041635 -0.042444 -0.027304 -0.027852 -0.017799 -0.018168 -0.011535 -0.011781 -0.007431 -0.007595 -0.004760 -0.004868 -0.003031 -0.003102 -0.001920 -0.001966 -0.001209 -0.001239 -0.000757 -0.000776 -0.000472 -0.000484 -0.000292 -0.000300 -0.000180 -0.000185 -0.000110 -0.000113 -0.000067 -0.000069 -0.000041 -0.000042 -0.000025 -0.000025 -0.000015 -0.000015 -0.000009 -0.000009 -0.000005 -0.000005 -0.000003 -0.000003 -0.000002 -0.000002 -0.000001 -0.000001 -0.000001 -0.000001 -0.000000 -0.000000 -0.000000 -0.000000 -0.000000 -0.000000 -0.000000 -0.000000 -0.000000 -0.000000 -0.000000 -0.000000 -0.000000 -0.000000 -0.000000 -0.000000 -0.000000 -0.000000 -0.000000 -0.000000 -0.000000 -0.000000 -0.000000 -0.000000 -0.000000 -0.000000 -0.000000 -0.000000 -0.000000 -0.000000 -0.000000 -0.000000 -0.000000 -0.000000 -0.000000 -0.000000 -0.000000 -0.000000 -0.000000 -0.000000 -0.000000 -0.000000 -0.000000 -0.000000 -0.000000 -0.000000 -0.000000 -0.000000 -0.000000 -0.000000 -0.000000 -0.000000 -0.000000 -0.000000 -0.000000 -0.000000 -0.000000 -0.000000 -0.000000 -0.000000 -0.000000 -0.000000 -0.000000 -0.000000 -0.000000 -0.000000 -0.000000 -0.000000 -0.000000 -0.000000 -0.000000 -0.000000 -0.000000 -0.000000 -0.000000 -0.000000 -0.000000 -0.000000 -0.000000 -0.000000 -0.000000 -0.000000 -0.000001 -0.000001 -0.000001 -0.000001 -0.000002 -0.000002 -0.000004 -0.000004 -0.000007 -0.000008 -0.000013 -0.000014 -0.000024 -0.000024 -0.000042 -0.000043 -0.000072 -0.000073 -0.000122 -0.000125 -0.000204 -0.000208 -0.000336 -0.000342 -0.000544 -0.000554 -0.000868 -0.000882 -0.001360 -0.001380 -0.002094 -0.002121 -0.003170 -0.003193 -0.004733 -0.004678 -0.007128 -0.006492 -0.009408 -0.008158 -0.010417 -0.009064 28840.889848 23350.520776 25270.378765 24797.825226 22618.424320 17916.471774 21446.254325 23256.027727 20769.885686 17193.791159 18858.341145 26922.431369 22549.753216 19546.406321 19969.813501 11967.161573 18000.003906 17797.020255 15224.870026 17019.170689 20777.221738 17668.998074 21064.891840 22572.677566 19627.229896 21511.118401 20096.107087 21135.629477 14830.158034 15288.234094 13807.783703 10147.180348 20987.206999 20472.655161 22283.974876 19398.672838 19295.288731 18691.663445 19522.185520 18109.926393 8490.334417 20868.120271 16927.503778 17695.544742 19353.852605 17103.613764 21846.503597 19870.324967 19648.057573 16696.373269 17883.274511 17755.157970 16492.045138 14987.333560 15939.967096 19660.935076 19560.609280 20844.359826 20601.585168 20549.135468 17168.947431 21634.943160 16866.559030 12746.528454 9441.807996 18758.887842 18341.091118 18680.481463 22330.460000 19369.799355 17284.164968 17656.275204 16729.262032 14955.358876 15633.059666 16864.389090 11219.692376 18839.220568 19511.286694 17058.113319 19174.868856 19446.113742 16635.283949 15015.677212 13763.207996 15086.615059 16003.223152 11496.962813 22779.103653 19669.668893 17554.223547 19374.647289 19819.529919 15983.865215 18879.599549 18208.141035 13747.396011 11716.803948 14251.858284 20018.664833 19347.937409 16557.091144 18375.692080 14677.097092 19020.222711 16661.897352 17542.346409 14790.035789 11538.938700 10139.401833 18635.783228 16878.874943 20816.871460 11302.669294 17786.518285 14775.467666 14820.132032 12795.401893 12724.459813 10104.731618 10896.702186 18539.666377 18026.375188 16337.068905 15595.603375 14011.443028 15960.519199 11979.908270 12834.983041 12049.974880 12914.662206 10023.210994 19075.070545 15785.012754 16433.014674 15334.001001 16264.967487 15271.411105 14884.368455 13071.139179 12779.378972 11964.049089 8917.835943 18882.841280 18716.841807 15605.533450 16331.596305 15360.607507 15094.441092 12855.194959 13538.863508 13405.585909 6342.740018 4490.536590 17610.689873 15584.582279 17944.527249 17211.850724 15967.433858 14401.555425 11218.848154 10147.423175 7437.657105 7710.894996 4334.404270 18480.221569 17447.559033 16336.659569 14746.720189 11837.453571 9219.006632 12068.900790 7320.966865 4717.870481 -464.326556 -2087.263586 18695.159757 16945.648497 15162.044814 15595.904013 13112.250790 13150.315547 9953.896863 11585.503783 2081.269222 955.742862 926.913536 16624.246034 15720.389848 14213.712359 12296.822406 10092.433126 9304.240190 7532.709702 5189.749776 732.500238 1931.243172 1357.638226 16064.981091 14459.637323 14709.515350 13029.434675 12442.598513 10776.675754 5159.822794 3510.208695 5400.556738 1714.442593 1702.959469 17533.663295 16486.040788 14917.874279 13548.483195 11177.316897 9451.885295 6713.352801 4831.282391 588.816510 -182.891566 248.974971 19318.244315 16681.367555 15699.809974 13592.067480 12005.991663 8966.917560 7462.484131 1299.094124 3483.253097 232.944131 1010.223979 17090.910409 14695.933438 15119.287799 13805.263449 10288.183896 6345.065064 3075.190070 1829.165595 4389.598574 1398.790011 589.853561 17639.843155 16226.451714 14652.680235 11979.938880 10925.781642 9234.149623 6551.029150 5087.693864 2431.087639 1567.000572 364.526829 16664.997942 15806.592816 13109.651853 12243.524400 7917.531357 7513.245626 7832.215662 4572.228878 2907.733845 3098.845820 1315.014840 16887.438670 15457.412826 13289.303390 12064.284870 10127.753445 11090.984609 5563.625606 3262.196721 3286.019808 2922.744872 2717.608788 17368.631912 13660.736414 13055.351637 15567.326269 12342.884885 5506.992742 6562.767041 3643.496448 4485.182595 3547.224042 1531.278996 15113.372733 14587.146390 13718.344819 11863.602196 12335.078110 8590.594949 8566.880540 3531.654692 1930.500783 216.318324 550.208882 15271.994729 15470.842837 13807.861547 11035.615692 9891.128280 9972.855662 5403.860699 3160.842883 2885.083359 787.710485 3125.705542 16708.902717 15694.535007 13563.746454 13980.515032 13882.878239 6092.958811 4432.029403 5120.708526 4801.890147 1300.241320 28.815831 16437.745871 13816.876504 13107.492544 12484.754531 8811.174924 8369.988027 7533.444840 5256.157549 3940.899996 1049.168683 728.951906 15928.396975 15202.591901 16721.416322 12513.675654 12176.947904 9297.026765 6087.867596 4161.350467 1705.217498 2017.964860 452.633231 16559.716289 16694.370595 13238.191636 14066.493866 12173.896886 9541.560003 6145.970316 3652.216165 3163.120373 1714.896518 22536.281121 17798.331521 12531.389534 13206.153644 10082.057624 8947.231563 8697.213487 6836.823157 4736.263176 2913.702349 3577.792649 3423.542591 18046.514382 16041.458257 14258.999543 11804.256202 11663.660526 8738.090483 7283.782148 5588.389506 1709.673922 2778.086190 516.098274 15968.159609 14872.738751 13747.625043 12047.808955 9490.019518 9331.617274 6343.583170 3852.565718 3474.286935 2835.538854 21.602569 18520.321826 17008.129754 15109.007246 14941.164622 11775.351074 9553.108411 7161.046885 5355.126982 1822.685590 3477.603803 -1210.549953 17029.878732 15700.980279 13585.769720 11077.575411 9566.618995 8152.602009 7028.672504 6920.650902 4021.994476 4338.749764 5743.489991 17166.256657 14160.439427 14598.014434 13716.351551 12062.995605 9690.094100 8340.384249 5723.103872 4827.650340 1602.890163 2967.007899 18310.049503 17248.808978 15509.472232 13171.272829 11130.038258 8527.352578 6161.833342 5787.802395 5749.452408 854.603389 11990.610577 18105.326080 15849.946365 14674.035856 12592.946879 10211.740598 8593.120864 6199.465289 4171.397842 3733.577277 5821.446434 5124.478142 17020.455931 16854.895140 15035.670255 13797.910108 11592.248059 9327.271079 8205.513085 5831.039102 5468.346487 -1195.811350 2313.692634 17934.455733 16802.052893 15873.132746 14094.654112 12146.150811 9015.510637 7622.782295 7306.131557 5741.203936 5094.249068 -2499.538137 17414.844288 17520.644705 14732.889496 14403.552799 12286.258562 9878.876247 9041.337763 5753.162287 7015.519680 2958.301493 2161.505620 17803.849384 16481.946039 15267.803082 16482.447463 12697.167305 11044.243282 9367.641276 8245.405370 2790.850483 2112.713913 8725.910322 19454.941484 16652.883894 15635.449708 14025.840631 12331.089776 9382.873828 7793.889172 7076.706512 3506.333496 3035.033979 -3346.505492 19292.104492 16679.341841 15846.743034 14055.286135 11447.016816 9708.145030 8857.068956 6222.338241 1973.587050 3107.191673 16878.630820 18934.733760 18177.687551 15670.171653 15652.852611 12538.149969 11186.402180 9705.683168 3702.805409 4922.871944 5132.731166 3525.834945 20800.832061 18061.238995 18466.332178 15760.030865 13602.447548 11485.765246 11500.690881 8258.102097 3500.780778 3395.606148 -1714.475281 20444.769817 17975.748508 17899.048678 16618.855837 13531.862814 13298.715905 11243.816795 9264.891206 6314.663668 4214.856328 6439.977197 20922.692952 18757.596490 17513.875327 16403.499559 15323.468831 13392.241622 11274.045991 10184.026201 8363.363185 5778.926502 9264.566427 20888.018048 18921.789059 19554.256331 16289.735477 15937.440395 12618.092217 11776.528494 11433.299519 6137.406133 6801.154569 15905.423031 21856.866452 21160.328459 18858.398020 17501.901536 16413.496072 13227.272602 12645.160347 10384.289959 8000.296029 5310.423725 5241.500879 21387.600017 20440.770832 18589.287837 18367.203330 17329.611371 14080.642756 11977.211984 10343.462603 9331.307502 7201.161049 4697.366716 22996.205895 22646.984451 18706.572909 17490.757619 17685.114751 14569.360126 9949.916376 12520.588356 6897.124295 6166.264867 14624.873123 22307.703391 21645.220775 21083.685476 17611.172820 17587.578917 15991.364991 12707.698265 10493.119455 8550.633808 5051.801990 4111.569065 21591.356202 22081.751824 20565.750809 17842.980123 16498.557789 16383.957109 12420.338531 9086.253451 9373.897425 2628.096994 7959.824833 23465.234699 21735.028032 21958.480615 18312.260256 16474.780311 17617.765082 11948.377332 11978.756872 7285.902849 7592.675633 12578.332213 23132.317039 23825.049395 21510.506016 19661.489396 16388.480189 17881.122654 12642.549973 12783.112263 9816.094311 9892.235077 7964.260225 24679.678434 21722.925970 20439.875398 19529.277511 17138.123360 16612.592999 13638.578469 13051.927975 9979.616392 6526.262924 1787.424071 23983.721243 22018.051139 23282.152117 19628.848218 18753.694913 15580.076896 14385.463816 13378.025893 8903.791093 9867.995507 10836.952810 23157.650414 23565.984813 22885.339200 19718.636347 20107.516933 15869.973737 14730.226271 13448.630497 9675.735616 7331.995247 -1520.557613 25389.768612 22728.196246 22192.199641 18786.207318 20747.668385 16131.435420 14482.226598 13264.069951 9866.133241 7261.582031 13160.206363 25654.009669 26365.236893 22580.959092 20237.359443 19481.192720 17021.897810 14080.699706 13418.302988 8293.765092 10598.728668 9644.743581 27497.718819 24555.299766 23725.461613 22205.226623 18026.231659 18243.975698 13814.320846 13529.535079 8581.728782 12703.801539 6856.421423 24726.535012 23936.555606 24282.201307 22434.746957 18833.835799 19162.639971 14008.849528 12812.299011 10386.849369 11133.282781 5383.891185 25047.162097 25699.428639 23409.594643 22320.123263 18944.109683 18982.209034 14779.826554 11605.920247 10344.011405 9653.415929 6663.430197 28567.082240 26463.786111 24020.027575 22846.819392 19744.243728 18429.341972 16035.074160 10508.226568 10406.434990 8760.763886 6976.757556 26289.937017 24567.606769 25199.923524 23287.456782 20926.496476 17730.997040 17035.560214 9772.609712 11436.742525 10258.371681 10054.649258 26433.200863 27098.481233 24233.821824 22915.048114 21608.177810 16897.816992 17731.216246 9520.156643 11492.721841 10722.268764 8836.835642 29691.956273 26549.202519 25005.698076 22860.259014 21279.174925 17285.648955 17438.460388 10515.849618 11100.765290 12104.640367 5623.247804 25715.339442 26054.984154 25171.414716 22413.477907 21002.881582 17511.039096 15951.100821 11368.703439 9649.632501 11681.933909 6166.678703 29347.544549 26990.131934 24207.694405 23004.746702 20075.618682 17945.014658 14849.133525 12445.767615 7830.094228 11376.314640 6994.385227 28435.986750 26144.194364 24579.034122 21982.425393 20193.371102 17175.854130 13983.203720 13292.194033 6168.031087 12032.077081 6843.676251 27611.562739 26594.609985 24739.488574 21614.931176 19708.002463 16902.369300 13545.122130 13700.296683 5781.398161 13604.004381 15187.339541 28289.642590 25959.899029 23983.934320 21758.976907 19312.788253 16926.541702 13361.235809 13903.407013 6156.215894 14494.647972 17105.657633 26144.856685 26145.289526 23832.433975 22227.365097 19696.383983 17205.593993 13152.441475 13658.752643 6284.167816 13229.600059 14910.661226 27614.652668 25256.513688 23646.115941 21957.326984 19394.309900 16940.166508 13555.123203 12557.153329 7564.288152 10393.319089 18129.200737 25945.386847 25844.307666 22232.424017 21420.152007 19242.356418 16470.638658 13978.467004 11789.006582 8192.848932 7723.204780 16914.025448 26890.219106 23196.539253 22974.248443 20474.418418 18663.317211 16460.279176 13135.971948 11284.610597 7995.729299 6026.777099 16449.352218 24317.229803 24389.489135 21959.557188 21296.087694 18276.725032 15355.772228 13321.632134 10264.201604 8317.620615 4861.465980 16280.541473 25547.909902 22880.392986 21298.574686 18869.746085 17520.397219 15024.539649 12699.609390 9752.115896 7992.923855 4796.938683 15636.274328 24168.545990 23138.609549 20056.135536 19023.567860 16781.505283 14250.045668 11807.409456 9572.185164 7442.575220 4812.782354 15361.807281 23373.609046 20870.284052 19178.990737 18285.876566 16289.350004 12159.741915 11540.166268 7923.130345 7443.604399 4769.217508 14259.769378 21338.198778 20534.347919 19088.438762 16180.526419 14746.436113 13254.194930 10281.096237 7806.300076 6479.812001 4154.439135 11661.800301 21664.007987 19127.160738 19117.398800 15660.606395 13919.264924 11689.857274 9838.362940 7004.279098 6565.052527 3827.509396 10081.428663 21315.011627 18798.381284 17276.063795 17031.116473 12440.094542 11232.891926 8657.510775 6861.068222 4980.547731 4383.057180 6662.830606 18985.584445 16438.444565 16444.709665 13024.990154 12725.436630 10191.777872 8319.584000 6725.989108 4047.095997 2555.470165 4798.717233 18790.323317 17019.974970 15231.863892 14235.714348 10756.256953 9648.067499 7021.026559 5558.016988 5089.034773 2755.535423 4104.667950 18447.994747 16240.960614 14306.185091 11893.147947 12126.907340 8274.214661 7447.469769 5023.548416 3462.677272 2406.594805 1984.921110 16358.032975 15617.381899 14072.281113 11678.802007 9132.312786 8670.259139 6811.872732 5124.667514 3598.549888 1608.487941 2074.881750 15957.607949 14879.489157 13912.085010 11099.041295 10794.202968 8562.714638 5834.336417 4554.868742 3756.966747 2183.272973 1689.937085 14227.748493 14168.144955 11171.345203 12025.750175 8187.483916 8644.987907 5662.677422 4644.863263 4366.798167 2333.453792 1365.602738 15687.381122 12554.005441 14167.974585 10108.765961 10706.928739 5854.374037 5776.642048 4128.750988 3772.667584 2312.120829 1855.943471 13474.153019 12322.538034 13105.564753 10509.224377 7453.175335 7100.432304 6314.497971 4759.850256 3270.544017 2581.383471 1330.674407 13150.630235 10791.061695 12415.190463 8006.683337 8444.557488 6681.515975 5852.715695 4528.991624 3914.459234 2459.759775 1398.026321 11368.550277 12080.246676 11092.154631 11397.909477 8616.720285 8302.793785 5953.042065 3027.486472 3300.266925 2412.025333 1360.637043 13322.339558 10560.707476 8582.846101 6190.015317 9326.890355 5996.480718 4933.043470 3268.902027 2277.352303 2111.792999 1813.170771 10654.857470 12267.078278 10655.890781 11903.882739 7266.723457 7323.723354 3424.192257 4221.050928 3180.332350 1754.322896 1397.641448 9767.674413 9347.858078 4530.504241 7869.032468 8730.955852 3674.646157 5350.626440 3263.736147 2656.448823 1539.237959 2113.732463 7545.545525 9085.031738 8508.183106 9189.142184 5444.210679 6135.088555 4138.011117 2368.327524 2251.930570 1777.461818 937.034501 7772.473269 9374.358726 7241.198118 7686.785804 5854.910582 2898.784177 6072.865428 4795.386476 3506.359235 1733.548226 2118.810293 14943.835385 21503.303097 19253.616545 14473.559432 14277.894141 17064.031926 13777.006480 9029.858142 7617.999359 6181.364550 5949.681138 2046.699057 425.127743 -8057.365766 16570.106337 11219.335777 16447.827825 10116.556974 7920.237790 14810.940798 11789.618465 5139.323017 8782.500717 1598.971097 2681.873407 3151.630534 2917.227317 -1319.972358 13094.054683 14082.438308 11156.088611 12954.093582 5886.565567 9855.720789 11109.556041 6582.060653 8150.472396 6415.641491 4277.468593 2837.447826 1940.915705 4431.101849 15307.412487 9773.236696 11376.893190 14695.905265 6907.645975 14603.990533 10007.234060 6366.263521 5749.532961 9605.263582 7772.435133 1877.440026 2396.785544 6479.084704 13248.004041 14297.861040 13541.777350 8556.903045 15303.090391 11397.028565 7159.152798 5684.448471 8727.574237 1896.255973 3705.740859 4106.515300 4667.185546 3523.299018 11008.150617 15207.622157 12527.648097 18670.372990 11040.051564 9345.256028 11901.694251 9589.129443 6645.594310 8088.786785 8287.288568 5199.040981 4838.890116 2239.840386 17009.393564 8915.978754 10765.352101 9591.234343 5293.347455 5993.868757 12264.174841 8957.672799 4328.974082 3356.809290 3308.034572 4531.549713 1838.701066 2891.385444 10881.979298 12224.281477 10371.972364 10322.112793 6681.881461 10743.756730 9906.279000 7891.320712 3188.661785 4363.518601 6534.480089 3833.696450 1932.191600 2016.842719 13007.898759 13954.220085 4844.988486 8661.644451 11885.467348 6043.478238 9078.701822 6382.972623 5162.094158 7532.918970 5039.091901 5058.013628 1693.660658 2462.434631 9424.124539 8972.250393 8563.373614 8541.566755 11461.294399 4861.583509 10575.465880 9071.171449 8612.183540 3574.812203 6036.054438 4825.284291 3476.446114 2618.384705 6333.824672 9708.083364 10030.481554 6415.459492 5135.684332 6644.439824 9837.279387 7345.036485 7322.998486 3320.146318 4925.206756 3819.407738 5270.884092 5088.778061 9601.338889 2472.786886 7260.897312 10604.232273 4734.858972 5677.465199 5886.736329 7090.054816 6761.209499 6226.216684 6774.771170 6187.343854 3558.218310 1917.062279 7035.513880 3766.742998 2065.077839 6058.024819 1760.429308 4416.038694 8004.244310 6751.202484 9313.610196 7421.938416 5766.472464 4644.460085 3352.421353 1375.854037 1549.683946 2171.948756 -109.121993 3119.645833 4568.167619 1955.808690 3746.761161 2363.193224 2489.917447 3963.886505 4460.395472 3657.934304 2848.379845 6668.103733 1048.738693 1340.656794 1965.457147 -302.678821 -310.016714 459.677348 3850.523767 903.548584 1616.500593 3456.828079 2624.608973 2683.756435 4746.569311 2887.248777
</DataArray>
<DataArray type="Float64" Name="Velocity" NumberOfComponents="3" format="ascii">