<VTKFile type="PolyData">
<PolyData>
<Piece NumberOfPoints="1945" NumberOfVerts="1945" NumberOfLines="0" NumberOfStrips="0" NumberOfPolys="0">
<PointData>
<DataArray type="Float64" Name="Pressure" format="ascii">
 15581.698590 16006.055801 15246.204866 16828.518486 15241.597862 16577.674414 16547.681705 17476.998305 17600.445760 17980.759414 17596.333884 16599.280961 18676.638724 17385.272964 18618.187923 17988.819944 18836.276915 18420.661784 19146.859685 18785.485137 20407.620607 19459.374650 19785.446755 19865.429909 18032.499097 18108.637487 16717.413883 17299.705906 18960.652997 18615.537011 18669.425901 18318.345223 19455.775850 19358.460916 18498.492187 18236.807100 19934.238673 20020.880064 19325.457693 19253.372236 21249.622066 21425.603157 20854.133975 21634.522410 19159.302479 20076.569940 21922.919679 21975.120846 21826.764019 20853.698327 22696.776192 21707.251375 22998.620488 22883.821904 22425.706790 22186.600414 23271.500031 22865.641150 22119.628119 22279.008980 22415.746359 22276.669678 25711.415918 25077.998480 24570.902656 24303.563137 23882.637161 23143.950714 25749.280220 24893.943919 24760.274834 23211.373634 26134.281583 23952.950399 25575.823428 24317.280866 23069.633067 22985.396706 21009.223733 20730.396246 23225.674686 21104.182130 23240.098305 20094.621834 24230.978842 21743.702163 21262.501457 19138.309101 24480.289962 24883.856478 19942.812232 20948.883184 20713.329657 22934.209511 17130.985366 19422.239306 21348.457055 21283.194736 22941.541009 24361.085135 17657.249398 20094.991328 20048.272186 20931.739809 18146.214247 19052.569616 19547.440711 22250.419304 22142.061216 21569.170619 21456.274688 21995.346201 20027.119125 21417.140917 23047.063316 24657.139277 22907.288500 21467.034921 28398.611829 28987.587283 19745.151751 20500.227683 24815.308359 28639.136215 21618.470947 22068.239912 22678.282934 22596.987590 24555.721927 22084.825482 27075.039287 22194.471989 33151.193155 32948.303430 22049.150614 19640.376953 28106.962596 28105.401456 20375.297980 19531.589083 26149.258002 27768.974535 23186.026152 23420.254765 23358.026206 23556.074065 28054.021294 28758.044444 17632.289163 18621.021340 28334.065426 29004.054492 21143.452619 20431.074822 25929.489675 26977.374293 28084.020048 26314.730139 27642.019334 27643.092484 31512.410675 33751.879010 21821.491448 24472.708923 29241.097488 31438.010160 23507.031018 24681.184006 26008.858065 27727.238048 25863.178630 27424.568755 26866.568171 25798.963687 29846.481544 24797.314285 24544.634801 21731.988323 27923.958868 28838.260307 27275.140770 27447.388397 27175.454815 26463.368184 27849.378389 26646.754653 26091.294395 26632.346651 29438.347446 32082.417520 27139.347283 26581.430708 26235.899880 27678.081478 28230.159701 27978.803527 29394.698970 30272.893312 28976.471189 30891.200169 26066.343976 28832.878291 26103.054004 28155.236681 30300.014811 28446.282108 34268.849057 35661.094680 28632.886221 32076.451348 16520.663874 14711.769290 12636.284110 10788.904938 8960.854600 7837.429026 6990.125675 5842.230410 4142.578972 2348.980108 -268.706637 -1227.191721 -1133.513683 -985.632695 -2719.326603 -6671.281983 -7381.940121 -7012.212026 -7144.862934 -7187.473114 -7149.168170 -7036.469172 -6860.604897 -6635.016829 -6372.919637 -6085.970029 -5783.768577 -5473.817962 -5161.717324 -4851.470117 -4545.830065 -4246.635786 -3955.103382 -3672.061184 -3398.122417 -3133.799619 -2879.569622 -2635.900145 -2403.249405 -2182.049178 -1972.679986 -1775.445066 -1590.547733 -1418.074906 -1257.988087 -1110.122157 -974.192779 -849.820535 -736.628041 -634.747500 -548.089483 19456.173643 15821.993477 13928.948350 11634.217935 9714.191666 8952.499334 7647.313818 7581.629000 5144.474325 3158.695003 -1548.923437 -1778.419617 -1042.636458 -570.084114 -359.543487 -4518.748471 -7405.483145 -6917.538354 -7088.948718 -7163.385450 -7132.648363 -7023.318083 -6850.310450 -6627.435665 -6367.766300 -6082.848623 -5782.254511 -5473.513716 -5162.282338 -4852.632708 -4547.387495 -4248.446984 -3957.077766 -3674.146166 -3400.291413 -3136.041676 -2881.881216 -2638.279274 -2405.691818 -2184.546412 -1975.218806 -1778.007900 -1593.113716 -1420.621210 -1260.491204 -1112.558358 -976.534017 -852.003468 -738.358811 -634.317934 -534.858392 29239.980924 27536.553106 27343.996168 26904.737857 25367.708919 21145.709216 15006.845696 12970.431287 11299.162383 8377.908704 3231.249495 -2923.266692 -2461.879473 -1588.977808 -1037.258514 -508.448015 -115.027859 105.478625 160.469948 79.332962 -101.446371 -346.095969 -622.911422 -905.326479 -1172.018360 -1406.678909 -1597.689252 -1737.758834 -1823.527824 -1855.118852 -1835.628288 -1770.557078 -1667.192506 -1533.963206 -1379.798538 -1213.528554 -1043.360802 -876.465058 -718.687084 -574.399557 -446.484363 -336.428061 -244.503286 -170.004301 -111.504978 -67.111443 -34.688164 -12.043994 2.927713 12.159989 17.343966 30526.523422 27562.763655 24662.336380 23381.605351 20987.980806 17327.516412 13777.692440 10866.443697 8416.667610 5208.594678 2162.172422 -541.923059 -1522.993139 -1471.047406 -1016.217979 -526.044727 -146.029863 73.196744 132.640168 58.092174 -115.834644 -354.212722 -625.645741 -903.639211 -1166.856148 -1398.948151 -1588.246227 -1727.399435 -1812.973135 -1844.997864 -1826.460619 -1762.738787 -1660.987653 -1529.503008 -1377.088905 -1212.465616 -1043.752965 -878.059294 -721.196714 -577.530748 -449.958977 -340.001171 -247.974518 -173.223019 -114.370035 -69.566679 -36.715030 -13.652636 1.707759 11.278422 16.714151 -487.323967 -459.526876 -466.355908 -440.208341 -412.727135 -398.415533 -348.483089 -346.849683 -296.802901 -297.081744 -252.403161 -252.946777 -213.950372 -214.484185 -180.711960 -181.194595 -152.091170 -152.519401 -127.548330 -127.925338 -106.589255 -106.919294 -88.763472 -89.050912 -73.663286 -73.912395 -60.922390 -61.137248 -50.213931 -50.398386 -41.248174 -41.405808 -33.769890 -33.904004 -27.555580 -27.669187 -22.410656 -22.506480 -18.166625 -18.247111 -14.678366 -14.745692 -11.821529 -11.877617 -9.490091 -9.536631 -7.594090 -7.632556 -6.057555 -6.089223 -4.816620 -4.842593 -3.817841 -3.839062 -3.016687 -3.033961 -2.376217 -2.390227 -1.865914 -1.877234 -1.460672 -1.469785 -1.139921 -1.147232 -0.886878 -0.892722 -0.687900 -0.692555 -0.531941 -0.535637 -0.410096 -0.413019 -0.315206 -0.317510 -0.241543 -0.243354 -0.184541 -0.185959 -0.140570 -0.141677 -0.106758 -0.107618 -0.080839 -0.081506 -0.061031 -0.061547 -0.045942 -0.046338 -0.034481 -0.034786 -0.025804 -0.026037 -0.019255 -0.019432 -0.014326 -0.014461 -0.010628 -0.010730 -0.007861 -0.007939 -0.005799 -0.005857 -0.004265 -0.004308 -0.003128 -0.003160 -0.002287 -0.002312 -0.001668 -0.001686 -0.001213 -0.001227 -0.000880 -0.000890 -0.000636 -0.000644 -0.000459 -0.000465 -0.000331 -0.000335 -0.000238 -0.000241 -0.000171 -0.000173 -0.000123 -0.000124 -0.000089 -0.000090 -0.000064 -0.000065 -0.000046 -0.000047 -0.000033 -0.000033 -0.000022 -0.000022 -0.000011 -0.000011 0.000003 0.000004 0.000024 0.000025 0.000057 0.000059 0.000112 0.000115 0.000202 0.000207 0.000351 0.000359 0.000595 0.000608 0.000993 0.001013 0.001639 0.001672 0.002687 0.002741 0.004386 0.004472 0.007133 0.007272 0.011568 0.011791 0.018705 0.019061 0.030135 0.030699 0.048325 0.049207 0.077031 0.078393 0.121873 0.123945 0.191085 0.194187 0.296457 0.301012 0.454432 0.460982 0.687278 0.696481 1.024150 1.036752 1.501724 1.518490 2.163928 2.185514 3.060090 3.086830 4.240623 4.272220 5.749221 5.784322 7.610449 7.646103 9.811730 9.842737 12.279019 12.297239 14.845617 14.840356 17.212230 17.179817 18.827681 18.920635 19.228381 19.801891 19.155439 19.967201 17109.492736 18086.790547 15088.942929 16925.723560 16333.964488 10551.134359 15024.515383 16960.453726 14788.114604 12730.429283 13721.743938 16509.536079 14899.106570 12196.413734 16724.925043 12303.755108 9106.968504 11510.627868 12991.763446 11008.915587 12567.084801 12524.443146 18284.062361 15976.310680 17207.874475 14963.720011 14999.656311 15667.436290 7635.853236 13637.740998 10864.058743 4565.119642 15004.470875 17282.463685 17311.557367 16188.197108 10044.838574 14407.358036 16750.875419 12973.839313 7645.894461 13706.486185 7039.591942 14174.486567 11496.716526 6893.574743 18699.429701 19248.514647 17475.843341 14726.703822 14013.905853 14602.732810 6536.120393 11965.662152 12900.557190 14579.315109 17708.574110 17352.788781 17410.555481 17148.998458 14242.925995 16938.447977 15300.898428 12770.219476 10780.045920 17207.729752 16527.268036 15264.542608 18095.219726 18752.074173 17746.585693 15247.118968 15468.452048 18041.445462 15145.746267 14236.299017 6098.889891 18756.458165 18492.559527 20191.765823 16677.962061 18909.892680 15402.753533 14519.706043 16188.739170 18536.359476 9960.869819 10883.986210 19523.364527 20942.043155 16680.322144 18075.461395 19699.618052 17221.348261 14235.359752 17578.979828 14681.853742 10599.424256 14859.861953 21352.269850 17851.262186 14179.373596 17873.938317 12114.423249 19631.435877 13979.052119 17188.338671 18377.034202 5003.954257 13783.126321 21650.186179 17754.217512 18717.132823 6425.097082 17685.373094 13001.265936 18621.214227 9468.832039 10287.948274 8422.280020 5955.852540 19268.701043 19961.953152 10496.695521 21657.918763 7729.902274 16128.081895 13358.824253 14642.243104 14893.901327 16623.554097 15424.037151 21797.156266 18904.715882 18966.635403 19702.482727 14889.436982 16732.854353 15184.821611 11727.241053 19498.309462 20111.086811 11761.697489 21833.878575 18501.072953 22113.134762 22013.217757 19199.046949 19277.531127 16886.553830 16007.224617 18078.739325 10986.473026 11301.890837 22795.507532 20949.534824 22252.378337 21131.754885 15460.075305 21867.586225 13938.728688 14315.757286 6894.029358 9989.563982 9967.979750 24655.492576 21435.457216 22897.599362 17902.156426 16029.876305 12711.285035 13108.566829 7700.351411 6785.348044 6633.454182 1216.667449 22788.551791 21321.108675 20300.816527 21447.578465 19319.057360 18844.211155 14433.533002 15107.328883 9196.551514 5434.560096 -29.617284 22347.811825 20042.802441 20516.068603 15722.032913 14134.308927 7816.390387 5159.759424 7597.939624 4774.639975 5846.955153 4528.779795 21801.097630 19997.837031 19352.355435 18559.741117 14174.422644 9408.210509 11697.903982 7612.840766 7462.034766 3494.864489 1998.415209 24586.592638 22308.367073 21189.396069 17886.959389 9240.385746 9468.441382 10213.365926 4723.855344 5182.849436 3230.759060 1874.844836 22908.506501 20830.921983 20562.537056 17416.274267 11771.883125 6113.096686 4735.471423 7061.341159 3370.031181 5275.731500 547.960542 22325.471130 18096.781459 16560.100524 15594.847059 14739.225999 6959.460710 7071.797907 3086.805289 2686.640177 5028.464870 2226.917649 21338.877360 22048.695638 19118.167770 11429.309414 13527.302053 12295.477609 5305.100141 5277.807179 5698.789007 5197.016966 2049.182130 21719.533198 18033.700380 15914.176312 13642.427506 6242.043250 10848.707034 11930.723972 10385.999752 8676.851795 3107.868332 2354.542882 17080.817414 18369.203370 15936.694938 13466.966468 12071.392940 12317.239573 10634.065812 3656.798355 10688.066861 4577.683307 3447.694383 21458.692461 17846.222664 17872.824631 16898.702021 15922.114806 10316.392733 7071.279314 7726.873073 7503.780389 7277.416959 2523.524515 20711.881029 16859.543208 16987.591288 12612.513097 17863.980814 7121.196455 12194.255122 3308.020157 6527.594478 283.727505 2076.628958 18269.640546 14072.478116 13007.692652 14705.685244 12290.447560 14255.386430 9572.262829 11720.140027 2728.699352 2962.683858 5863.023397 19722.172653 20956.954853 14951.635849 14859.073393 16249.203925 9756.325956 4436.334153 7005.844427 6157.218387 5392.460157 5000.635302 18773.013481 17588.139971 15358.334747 10557.615897 12565.755249 7750.926666 9031.282407 4386.039672 7874.040965 6305.901515 3654.640261 21067.743748 16330.235127 19566.975822 14910.896130 12193.262848 8644.021173 8396.858479 10155.305342 6714.128371 4150.909283 3020.919468 19522.909025 19317.188500 14533.953256 16235.814259 15357.325488 12827.700033 12123.742280 7926.542892 10176.787946 6891.523522 3497.921377 19535.988401 10403.906209 15808.357786 14244.684170 15489.948863 12914.949969 6189.877547 8927.913181 5387.450398 5672.753129 4103.922605 21782.172537 20859.139518 17382.175166 16100.748824 12352.618764 8899.766657 10937.930099 9522.228896 4695.430406 5813.454509 5052.569950 19929.887633 17445.147629 16271.821480 14085.681992 13434.461414 13765.151044 10403.374542 6467.882469 3742.390586 4081.313391 1315.610652 21240.323331 18662.649934 19093.383563 15465.502225 14966.686752 13054.325444 11043.912038 10482.280670 4197.625375 4677.659868 1995.025930 18926.420953 19772.678511 14619.068288 14758.882715 16249.966061 11909.110369 12501.925461 9404.434805 8234.909072 5496.504723 -3017.233476 17148.658017 17661.664461 18171.460345 16706.577307 15112.523050 9818.649624 10946.324546 9916.495314 12726.265148 3791.908387 4809.105257 22716.751722 19432.899304 18294.667037 13233.968892 14757.799934 8686.579549 5714.116224 5420.957188 6762.806632 2802.655769 923.578858 19859.321208 16617.642032 18190.573639 13268.958442 5341.182452 8658.705565 5656.210660 4869.588402 4318.084086 6348.538300 7862.031873 19055.822660 19875.911392 20639.219327 16143.487939 14546.279261 9139.510853 6984.144093 5595.699124 8603.492894 1657.104448 1777.064272 18121.454190 19478.089982 16742.322746 13344.862617 11391.662268 9322.675623 13770.600694 6140.444998 2674.211544 2646.006858 3591.626602 20362.910474 20208.724558 16475.355010 14258.829517 13347.514204 8610.153582 10146.992573 9052.695946 7384.163913 4414.420407 6443.526248 18548.094581 16131.116224 18352.884627 19422.085179 11898.991993 11784.318928 7170.156212 5053.232604 5469.160999 4376.880092 8729.263430 21664.197044 20858.068910 17216.247100 10411.333582 12559.800478 12999.163891 6328.569335 11933.273008 4483.307574 7519.309802 407.608283 20820.288271 18098.514392 17785.480926 6833.573339 6481.590189 6889.207578 7265.321863 5530.649807 3071.557784 6326.122082 7291.106830 19670.179384 15747.353473 12537.398007 18009.725812 8388.491527 11835.207989 11960.011001 2291.134574 4337.239850 10818.692276 3596.624943 21479.176002 19159.250235 15938.665738 16490.150393 12336.277031 10495.612611 4402.140096 13822.486020 7830.144526 -59.261620 500.885773 20893.918802 20521.937909 18869.715764 15106.072911 10709.307142 14920.736034 13335.369281 6116.457469 10851.661834 1891.034028 3118.616860 17379.199834 19154.357515 18422.843696 14359.263960 14172.621120 12312.430455 13840.961405 8521.586241 9374.847393 3177.563335 427.111783 18267.153913 16855.013608 19784.913484 17474.058010 11270.952818 13851.399074 9907.941370 12547.461552 9843.902507 7991.311222 5374.517521 22504.134699 20178.660545 16414.815728 14981.225969 14937.214479 12799.096880 13015.371168 9467.645048 5555.779873 3337.699816 190.594862 18964.091023 19765.745468 20334.126710 18065.855600 17489.278719 16843.250606 11964.517541 8209.112203 9402.785746 9007.013550 2766.958023 20499.813517 20981.028058 18062.603447 19722.710970 17896.038058 16161.413502 10130.543575 8331.966989 4024.800440 6011.295934 3745.919045 24021.619016 18752.961232 19873.648256 18276.385174 11670.830571 6635.172056 5990.842326 11106.388188 2815.740638 3140.798496 11101.125270 20839.268906 21269.160461 19117.864649 15888.698608 15220.256720 11911.677676 11129.894763 6350.685679 3926.926622 4648.483817 1409.233802 23941.035342 21991.877129 17942.244237 15709.880225 11967.898991 10663.508112 11070.459943 6804.022170 4958.294551 3437.715246 1742.385579 21262.835786 22291.192541 16186.257797 12023.045515 17737.961706 13585.413188 13413.974352 10872.005782 9857.308469 4298.908933 1023.280464 22595.549967 18192.379244 19460.443397 17226.377461 14641.771967 15806.325831 13607.608847 16042.239555 8430.947373 3118.855423 1290.204492 23077.415308 22775.956613 20882.121509 18739.761195 17400.924483 16538.219794 13220.485478 10933.378923 4937.314280 4421.015541 6566.026093 20177.288403 19274.897835 18534.177827 19735.838234 14946.371412 16933.325683 8054.895314 5310.853907 5423.964903 3422.451053 5405.265499 23535.335360 22254.161743 19487.091288 16766.950386 17807.419889 15750.693544 10179.533504 6037.693048 9290.190498 5325.516804 4942.288364 22048.200911 22307.826078 18228.966539 19875.183527 17930.516982 13655.366920 18040.464020 4892.756449 5502.023331 10832.055397 10608.755020 25561.054247 19632.819514 24004.672994 18254.774769 19431.939319 16936.082298 11077.392366 11004.070573 5787.860891 2607.431561 1037.343995 22252.256443 20520.538897 25340.822797 21513.092207 14792.168920 21489.330591 14084.962167 9423.474444 6553.980247 7876.495659 18449.822535 22218.078456 23982.666437 20690.694709 19868.504500 16122.608619 17438.811018 11783.395408 11518.874620 7498.218213 10392.019412 8205.948327 22658.836673 23052.678774 22761.732033 21968.120697 13494.665796 17324.388757 13751.075910 6827.456512 7746.438319 4882.592508 6334.990160 22102.127971 22117.151921 22261.332618 20278.971620 15255.441529 12359.087006 6625.032582 11083.957943 6501.980106 10836.222231 99.565723 22660.856755 26062.342383 21374.716750 17725.124098 18034.845938 10513.358837 16888.508281 7296.766419 9925.478345 8439.654890 9624.646106 24607.898896 24631.386606 23190.924255 22761.776870 19958.022411 12524.779480 15828.651885 8762.183114 6857.528363 12366.352380 17627.520154 23974.863046 21498.770745 23995.527873 21192.678319 18622.464098 17859.855865 7196.410934 14665.986683 9528.880973 4960.574460 9134.377579 24035.939351 21361.246015 23036.769253 26988.190938 19370.892683 16908.615721 15956.958237 10285.199287 8568.628367 10292.541301 2044.768621 23190.320647 24067.682075 24511.492857 20764.864288 16263.593064 20119.990469 17148.446829 10274.001609 12447.313964 4026.157153 9687.774520 24230.083345 24621.755220 22957.589768 22949.165154 20339.764344 20188.933525 16557.563088 9378.457034 7424.263059 10619.756295 12083.056559 23586.493855 24301.444690 23000.940894 20274.402522 21570.410888 17438.565522 17826.619565 13758.436525 12124.897458 3310.310257 -2802.552148 23982.744276 27095.572505 21822.921177 22363.340905 18421.336734 12087.053450 18789.875298 8048.911216 10307.984473 14929.616200 15822.314569 25665.253251 25044.189782 27192.914531 24576.716001 21580.037414 18652.163613 15445.169644 13894.567751 15424.845630 8302.015654 7082.085007 24724.182523 25867.077041 24524.925435 24011.178016 19746.116858 21185.079356 12270.513934 14045.753210 12104.789847 4941.298833 14384.150606 28398.511236 24537.533669 26221.846890 24632.787159 25373.322886 22039.977032 22160.797294 15383.133597 11728.301947 9501.585480 14154.382612 25906.389558 22806.530292 25340.152654 24408.314427 19606.653719 17787.841503 16704.689362 10697.469879 11877.448032 7922.992372 13317.782153 27002.739840 24212.035927 27693.906423 22246.268085 21640.576808 18897.519467 13332.392021 15340.071496 15079.820500 10429.473540 5046.836395 25240.373261 29192.110065 26986.155007 20941.983565 25086.002603 22952.131510 18304.809766 16719.942706 13823.509898 14174.216588 15979.264766 27567.303814 26772.856935 25726.567463 29099.987958 21940.043563 22884.731149 20330.050339 17594.333600 15462.752316 11952.182319 4368.518847 25623.201290 23959.291964 24807.920574 23610.533671 21512.428459 21758.511555 15263.964962 15215.126628 15315.784932 9895.759231 21608.599517 28111.082387 27432.053056 24477.736847 27234.831652 22796.151214 19521.241640 18129.286918 14998.157843 16604.520175 15619.869876 14819.746995 27038.011599 26046.856111 18780.797000 25868.019477 22017.442206 21638.949415 18442.562715 18087.992780 12529.910603 11845.837243 15928.693606 22148.307954 27011.315979 23616.198407 21779.019078 21849.731189 22274.973882 20672.224041 11621.230811 11650.282351 18769.798348 9464.394526 24139.388324 26247.767585 22844.154692 27165.592235 20209.140688 19998.729855 15627.578060 12530.353265 10590.268050 12243.441327 2119.928551 27102.574346 26251.876946 22768.303973 21758.828370 20221.963758 25237.295783 16170.036572 18610.620545 17109.001505 7572.097488 1453.088985 24614.909775 25438.002009 18611.985879 20794.467722 16266.324810 20472.479379 18438.154460 16417.847205 11709.033940 3034.782829 23061.423861 26034.111577 24590.353555 24569.136268 25622.985219 24300.054997 17885.529514 16197.353379 17670.489253 21201.718322 11658.760361 7476.511418 25429.567343 24862.856111 24474.096080 26431.898805 19798.541153 23240.950634 21380.226541 21195.059732 15435.970165 1777.417958 16671.545577 25109.539232 25232.194274 24476.557008 26760.715454 27050.849637 21525.070437 20627.639026 22778.919111 20739.914056 2590.838976 15905.880929 26201.918859 27079.954726 26786.623799 26044.601120 27913.382143 21856.672058 20790.484680 21684.271326 23354.521390 18595.873777 8027.971755 27296.809890 23640.688911 26875.298203 21829.628727 26207.979378 24824.221167 22362.474771 17557.614371 23435.594548 15678.763613 20920.758494 25064.137369 25039.645937 21715.708017 27681.364980 25849.195745 27177.795760 18524.174463 15608.594251 16285.904512 18936.424287 14584.999671 28035.639137 26140.251542 27788.167911 22838.266751 25192.396776 18432.369907 22955.695141 21859.781186 17156.630933 18414.353657 664.806621 25077.748575 29318.016189 26993.509943 29558.475034 27212.460480 20897.735031 22099.702271 22666.559144 20227.212896 13728.307780 18035.924143 31474.149854 22576.259994 20617.273965 27014.563955 27040.289201 24337.967078 26590.727914 13289.570068 13901.171784 17264.568579 15629.190792 32463.398158 29182.831011 30907.031561 24384.471479 26853.724642 30525.952914 26451.785073 13132.492321 21044.743649 19328.452342 20071.925984 32090.701975 28798.942552 23439.296450 27524.120721 30366.323557 23781.733343 31461.379332 29127.206477 21016.536899 11505.013412 10211.305175 13102.569929 17964.529714 16773.690505 14822.995558 10289.904316 14527.225154 10343.020822 14258.688157 15391.804407 10272.765154 11036.216013 6714.802851 4114.008112 -8385.013976 14194.959280 11690.765947 14310.030268 13893.704663 6268.839505 17621.587196 8273.803162 6479.419930 13484.842331 4998.614016 9272.655668 7736.534074 4163.158813 7547.893500 5889.590648 9477.905248 10555.438467 6636.098377 7626.084495 6242.830198 9786.078715 8159.672571 10516.350731 5714.303172 2980.343112 5476.087182 3188.592852 5415.618017 11470.048896 7389.987898 9397.000238 9741.106801 8495.685146 9809.678566 10867.441932 9448.569006 5074.447211 10067.481764 8852.310339 6680.691688 6975.490168 1527.515449 13785.279256 16519.447379 9536.514390 7143.908119 12447.407554 10190.774881 8510.281369 8837.000207 7154.967530 3636.980575 8261.811943 5009.221819 4500.618284 2080.137335 10630.191663 13739.604572 6821.839254 16466.166703 13387.406161 12864.122950 13664.900072 7613.886725 6692.553755 5749.864495 6651.315123 4182.885476 7216.946416 3380.377963 19273.681044 4642.069242 9930.867355 9200.481916 2313.748463 9803.863705 8675.586055 11076.191770 6919.067098 5246.764111 3072.590296 4348.743597 2609.179806 295.191308 7880.385531 9112.619945 9899.371025 14599.624016 6951.607465 10780.794448 4345.278919 5087.598400 3653.399758 3941.731457 4873.541903 4949.363605 5094.251241 1233.923026 13191.142258 12133.074552 9177.732417 4779.641156 10165.685332 4437.158316 6566.986297 6082.552288 2370.884843 7033.828563 6053.247661 5562.608336 1696.945148 3373.247538 6163.704512 7735.601247 10513.234254 7323.634060 10139.008703 3822.493157 8831.580192 6367.495223 11020.471768 3888.354317 2672.117853 2235.576064 3345.102537 3748.558294 8313.891683 9289.495933 18833.437600 15116.552592 4475.964915 5853.779643 5182.463324 10286.361130 7892.814876 8204.380976 9402.049347 5358.146694 2951.593461 5070.102704 11504.726415 3148.880404 7700.763620 16734.927692 5712.107190 12248.498222 3556.303622 13010.352583 6617.354225 7339.928738 8133.753237 12832.296631 2758.752293 2757.342133 7337.678009 2405.302611 725.366087 11216.690402 3170.754961 3497.897745 7663.819622 16365.421916 18508.961241 9520.943475 5205.485851 4720.345724 4175.816776 2932.204680 1688.916543 7711.563373 4362.454876 5684.818514 8015.806883 4609.902600 6900.159154 10837.953748 4734.837021 11084.464031 6563.695888 2996.114835 3994.104336 3463.118231 5505.915617 3380.991480 3301.168967 2691.534016 2753.395501 1411.247110 6846.593303 6343.093564 3089.054041 1782.717785 3961.661678 1857.140731 4853.344656 2644.437622
</DataArray>
<DataArray type="Float64" Name="Velocity" NumberOfComponents="3" format="ascii">