<VTKFile type="PolyData">
<PolyData>
<Piece NumberOfPoints="1945" NumberOfVerts="1945" NumberOfLines="0" NumberOfStrips="0" NumberOfPolys="0">
<PointData>
<DataArray type="Float64" Name="Pressure" format="ascii">
 30577.029369 31335.940551 29874.572168 29143.431454 27084.427448 27098.301298 27967.076135 28861.429382 29268.102005 29202.641973 31437.015210 31475.764834 32147.335320 32390.740128 31202.245736 30904.467605 29945.980850 29924.929511 30433.314836 31045.862939 30220.655744 31443.978163 30430.911516 29488.181462 30150.946233 29425.543258 29431.532764 29539.737213 28700.500275 28211.839691 30156.975811 28965.124082 29905.483306 30871.211477 26466.584209 28359.781781 25362.816625 26868.069907 24639.695410 25608.097891 26919.508795 27447.941971 26105.314843 26248.441317 26699.173028 27060.789587 29165.339364 27827.142420 27619.104032 25424.869507 24674.411185 24367.816409 23455.905138 24185.456116 24894.676297 23544.521747 25188.855825 24443.019368 22560.098744 22917.687524 24561.598175 25290.547234 22841.802184 21795.922344 25000.550456 22586.982297 20603.789703 18374.668133 25241.815587 24466.408788 24818.716964 22760.141912 24811.751754 21661.478273 25744.368658 22784.319217 25389.493280 21508.105959 23114.012981 21253.779338 20135.679595 20946.816226 19693.849283 19952.112495 19809.637080 20093.756297 20266.324289 20249.802080 21263.717263 18383.826626 21884.251370 19298.091286 21374.764542 19503.656940 21535.801469 19737.557897 22612.875075 19955.614146 22142.623872 19730.915599 20437.445726 18212.144759 20824.461781 19433.041530 19712.806161 19650.049092 19466.451449 18689.978857 19541.295493 19023.228204 19905.277756 17726.199447 20391.958395 17895.035992 20118.625263 20139.781902 19408.980508 19727.305750 19800.812331 19631.633302 20389.939648 19996.295301 18574.525628 18683.473632 17973.819050 18439.501793 19407.063169 20032.406397 18066.403945 18472.941494 17336.961594 17622.871455 17752.402555 18438.737546 18621.783517 18865.464876 20274.192093 18778.220043 19299.927833 18926.793454 17997.667615 18781.060224 17055.487326 17843.081066 17608.159955 18358.109471 16031.336176 17083.813619 16744.485364 18577.953307 15953.582290 17515.912595 16484.084426 16650.921430 17161.956755 17177.507745 16511.675864 17029.115302 16562.899020 16610.647861 17453.293448 17975.061871 15150.195419 15997.878995 15399.599537 16104.702256 15555.470331 15888.433696 15833.371374 16388.010512 15993.300126 15970.494911 15980.721628 15570.474726 17843.682853 16796.087091 17044.179604 16528.061582 16663.128069 15870.003038 16479.123296 15389.877533 16438.633755 16337.570748 17626.504612 16709.365968 18180.507899 17124.388367 18294.060914 15913.500656 17144.694029 15370.326430 17921.054956 17128.347310 17401.941802 16945.915819 18098.604140 16982.292955 18137.803540 16672.784108 17637.021761 16840.142645 17847.703027 16498.773638 16933.920698 16881.533550 15850.334467 17156.595328 16168.846697 16734.327010 30022.309627 30117.840202 29588.532167 27763.290014 26552.483333 25400.113467 23086.390509 20716.522695 19888.140824 19546.335534 17894.900747 15588.865589 13149.618971 9142.613732 6565.841023 7581.908350 8541.169622 7986.746424 5267.119128 2395.738149 -196.652051 -2060.687221 -3224.448257 -3939.979021 -4358.712715 -4579.448005 -4666.555055 -4661.984287 -4593.315083 -4479.056512 -4332.026292 -4161.444160 -3974.203546 -3775.637622 -3569.982980 -3360.665853 -3150.485035 -2941.734511 -2736.290360 -2535.675840 -2341.112584 -2153.562442 -1973.762661 -1802.256036 -1639.417167 -1485.475858 -1340.540103 -1204.630652 -1077.799006 -960.746899 -858.861945 28799.375418 29917.042196 29714.661335 26866.867591 27182.417296 26129.175757 23761.193961 21477.860317 21753.111757 21926.279446 19419.444500 17660.046959 15549.287747 10479.841870 7165.612915 9992.732544 12093.452473 12798.042848 7017.326625 3695.909744 -71.497411 -1933.685512 -3132.755419 -3876.574812 -4315.509745 -4550.014334 -4646.333760 -4647.908271 -4583.384948 -4471.990781 -4327.004948 -4157.934831 -3971.850142 -3774.191822 -3569.263230 -3360.533202 -3150.828939 -2942.464409 -2737.330535 -2536.962162 -2342.590323 -2155.184710 -1975.489235 -1804.052402 -1641.253595 -1487.325708 -1342.372827 -1206.371804 -1079.086921 -959.471385 -841.822670 18023.172174 16331.606769 14243.752635 12472.538643 12210.145112 10664.604042 11495.041495 10427.781167 7974.620710 7822.053199 6141.243562 5387.169274 4636.279796 2900.174011 1901.114834 1157.917931 615.428440 223.222537 -61.092170 -270.184247 -427.811239 -550.549794 -649.522678 -731.835766 -801.703881 -861.321890 -911.541005 -952.394153 -983.498878 -1004.356698 -1014.563401 -1013.943469 -1002.621679 -981.044839 -949.966088 -910.403088 -863.579952 -810.861087 -753.683447 -693.492137 -631.682906 -569.553895 -508.267973 -448.826158 -392.051940 -338.585646 -288.887228 -243.242935 -201.755722 -164.203346 -129.084118 17304.081105 16574.669429 15226.468962 13312.595126 12057.722744 11051.968631 10379.060151 9257.861405 7871.017169 6986.302656 6049.073076 5080.986755 4015.601505 2904.411046 1938.808082 1195.464581 645.716091 245.777607 -45.015137 -259.028161 -420.185952 -545.346299 -645.901694 -729.182476 -799.581889 -859.434985 -909.702642 -950.502586 -981.516199 -1002.290785 -1012.452444 -1011.842983 -1000.594016 -979.151144 -948.260528 -908.929105 -862.368240 -809.928961 -753.035284 -693.120607 -631.570731 -569.675914 -508.593342 -449.320537 -392.679578 -339.311479 -289.680098 -244.087156 -202.715478 -165.810227 -134.743495 -786.018915 -752.460297 -758.817028 -726.804981 -689.651646 -671.680289 -604.680680 -602.457852 -533.533970 -533.735973 -470.110600 -470.680948 -413.122576 -413.715190 -361.988305 -362.547140 -316.251018 -316.767646 -275.481754 -275.955910 -239.266777 -239.699791 -207.208061 -207.601727 -178.925402 -179.281743 -154.058316 -154.379502 -132.267443 -132.555737 -113.235465 -113.493178 -96.667574 -96.897025 -82.291547 -82.495029 -69.857482 -70.037234 -59.137255 -59.295439 -49.923745 -50.062427 -42.029871 -42.151006 -35.287505 -35.392929 -29.546281 -29.637703 -24.672351 -24.751352 -20.547115 -20.615145 -17.065946 -17.124329 -14.136945 -14.186879 -11.679730 -11.722296 -9.624279 -9.660445 -7.909843 -7.940471 -6.483920 -6.509775 -5.301311 -5.323068 -4.323250 -4.341501 -3.516611 -3.531874 -2.853188 -2.865913 -2.309053 -2.319630 -1.863974 -1.872739 -1.500905 -1.508146 -1.205531 -1.211497 -0.965874 -0.970775 -0.771941 -0.775954 -0.615423 -0.618700 -0.489433 -0.492102 -0.388281 -0.390449 -0.307283 -0.309038 -0.242590 -0.244008 -0.191053 -0.192195 -0.150102 -0.151018 -0.117644 -0.118378 -0.091983 -0.092569 -0.071746 -0.072213 -0.055826 -0.056197 -0.043332 -0.043626 -0.033549 -0.033780 -0.025903 -0.026086 -0.019938 -0.020081 -0.015286 -0.015397 -0.011653 -0.011739 -0.008802 -0.008867 -0.006539 -0.006587 -0.004698 -0.004731 -0.003135 -0.003154 -0.001713 -0.001718 -0.000290 -0.000281 0.001290 0.001317 0.003215 0.003264 0.005725 0.005802 0.009127 0.009240 0.013827 0.013987 0.020354 0.020577 0.029398 0.029702 0.041846 0.042253 0.058815 0.059351 0.081689 0.082381 0.112135 0.113012 0.152100 0.153190 0.203778 0.205100 0.269502 0.271062 0.351575 0.353352 0.451964 0.453901 0.571855 0.573837 0.711002 0.712835 0.866834 0.868216 1.033259 1.033746 1.199131 1.198103 1.346326 1.342944 1.447412 1.440577 1.462910 1.451221 1.338158 1.319880 0.999876 0.972911 0.352522 0.314402 -0.725369 -0.777473 -2.384632 -2.453869 -4.808407 -4.898172 -8.214213 -8.328033 -12.854779 -12.996108 -19.017287 -19.189025 -27.021137 -27.223627 -37.216973 -37.436977 -50.006424 -50.150166 -65.991698 -65.494093 -87.128780 -82.272384 -105.561585 -96.538139 -113.413366 -103.874767 30258.068608 28644.576541 27089.108224 28294.769535 31980.505834 24908.160626 27651.336650 27602.459218 25587.439739 23989.002027 27564.679410 32963.989505 28927.225517 25849.377264 30694.390558 21569.883981 16835.868656 24268.323760 21430.245501 22445.744071 24633.308591 22203.327511 32281.343497 27383.914287 29119.151236 31381.752136 26474.766540 30384.078484 19280.189020 25441.874530 23441.089524 9944.118323 28029.723653 29301.772221 28965.224843 29538.173467 17472.547668 25916.295309 27491.363471 23283.409546 16349.347951 25809.978103 13372.927870 27295.025302 21373.160324 13775.610814 29481.812996 30923.298753 29432.212937 23464.299353 29274.637079 22535.279841 17474.469217 22773.474163 21758.087009 26157.310205 26704.685252 28678.431037 29927.254371 28837.394249 25820.661742 29499.961734 28436.789924 24109.960429 20528.357680 29348.485044 26786.302149 26830.281128 31122.653506 29745.351487 28535.424898 27463.046185 27982.904959 24520.524410 22649.896268 23189.319965 13417.449745 28518.919161 28120.467904 26020.449178 24979.902726 29568.845357 23855.079213 18532.717376 27342.298559 27708.654694 17168.890745 19652.672568 29249.604588 28584.461861 21480.532553 28115.344413 25777.193797 23074.840032 24412.681199 26532.883191 21474.307609 13723.277235 21800.433490 28720.692145 25067.702217 23665.596292 25129.179023 15755.830873 28139.611277 15950.610170 24569.410219 25498.089055 8386.150820 18211.160848 26298.259132 23942.249305 25962.498230 13043.935685 29242.650095 18192.408176 22227.521549 11038.243516 13265.184667 8954.619919 9086.915877 28124.040253 28392.223825 16584.303343 28417.701040 10932.728472 20449.699627 13529.760504 16179.380257 19198.965857 19813.184117 16308.608911 27140.551091 24941.726968 23140.793646 21546.079575 15610.856020 20050.428089 19905.727862 12548.446874 23174.321029 22914.561747 15821.471989 26511.168894 27890.392444 24999.205034 24468.745870 22439.953413 21231.792983 20859.046921 14951.078446 21600.071054 9218.704329 15340.424914 26842.441308 23517.381488 25233.779671 25489.773077 18645.969115 24903.804980 16510.087775 16104.968982 10460.763902 9269.891118 10236.146834 24719.435583 21981.260138 23350.349286 19725.862602 18102.292300 14961.703392 16579.859787 10989.355465 5788.253943 7850.861576 3042.279513 22922.413631 24298.421213 22555.661041 22281.949851 22696.978903 20855.744066 13819.832929 19501.572874 11410.701710 -3269.642272 4467.873051 24239.089897 19405.501954 22861.246251 16342.087716 13348.780187 6592.254705 7207.198546 11626.319618 5027.873293 4626.923222 6625.726332 21004.024571 21640.215599 19645.230354 22417.160220 19365.984137 9373.047097 15111.694063 9031.925755 8562.472710 6807.543280 6884.610001 23577.029095 18997.377548 21570.303620 21342.674821 11994.910875 12891.386565 9565.685348 7278.672559 4261.223621 1352.289437 4418.995811 19735.200830 22972.833961 21554.312923 19321.889600 14095.647131 8998.309766 5577.162041 3678.874762 4795.585371 2474.498554 2908.583112 22815.438530 21471.037137 17311.608742 16754.290257 13308.097944 8465.075770 7830.129111 5425.969247 5885.659296 3701.193336 2442.503836 24063.576070 23259.915749 21545.313879 12172.777954 17652.955932 16805.924831 5707.880576 8706.023338 6213.932292 5890.837078 3015.903347 19585.304677 21870.632021 17847.534072 17443.938904 11616.143521 12045.739915 13297.414425 12901.646315 10386.500984 4798.379422 3530.427610 20065.322980 20876.349825 19115.715952 17254.418413 13214.995208 12635.805893 9040.194533 5511.459216 13198.226348 6643.576930 4208.397699 20407.279841 20895.594211 20847.575645 23044.428944 19442.689449 10899.981743 9692.667184 10349.422992 12063.738258 9031.514243 2074.160433 19734.753284 20577.523415 18558.538085 13805.109038 19692.008976 7140.226795 11040.389244 5954.299934 6315.663881 4076.082546 2948.867762 19046.047574 18234.153562 14692.155560 18074.618958 11084.448640 14553.078366 9580.832132 13109.978164 3737.184425 4408.230987 6305.623315 22289.995088 20925.092672 20622.394747 19831.498955 15044.437139 11371.479276 6740.999610 9649.295165 6860.184657 8293.974377 1251.788924 21276.659992 18133.931637 13223.501870 12270.212666 14745.211529 8700.621266 9841.062249 6261.272145 6533.772959 8107.764665 4302.315535 23357.528004 16690.529153 18536.620485 15557.149110 15287.639731 10239.695394 11836.920501 9415.469692 6634.694959 6871.860318 2874.667002 24872.614685 19531.349202 14027.008997 18302.157135 18436.965137 13604.007596 11715.745808 7880.308098 9135.428465 7451.818013 2502.458827 19632.593099 12583.733866 20621.904386 15618.827911 17104.042542 12211.607084 7797.330582 9720.777756 5767.884709 5059.649403 2936.916838 21491.546116 18618.436380 20348.202845 17040.476726 13932.359928 10754.661857 9079.818419 9644.297776 6597.294355 4536.846160 3793.022347 19651.888448 18761.187265 16413.879147 17757.169849 16277.251350 9798.952608 9842.330113 5864.988821 4919.185600 3784.706020 3071.068554 20862.584530 18797.990389 21175.432439 20096.405256 14542.838921 13785.114048 10768.889532 13158.837020 3408.453423 3768.623178 3318.254198 16047.818635 21612.958443 14085.686717 16542.258038 20052.881592 13407.977901 13125.532426 11528.907408 7987.142138 5003.680346 5037.613135 19886.331569 18336.705743 18451.392287 15829.508204 13077.844329 8764.969676 9898.621789 10196.363881 16736.190591 3508.747467 5928.211983 21290.532361 19441.988756 21890.418073 11197.071784 13949.836148 7929.918766 7627.392700 5799.812251 7116.734999 5125.771898 2269.836814 18258.841649 18959.099318 19761.481373 15366.900707 5866.840498 8518.872533 5876.743601 5210.656539 4590.203570 7394.974876 3544.496251 20556.908900 22965.592964 19167.130440 16327.811225 15509.807525 9207.596461 4745.716433 5919.676331 8295.198319 2393.210483 2746.599200 17297.710853 17850.949665 14750.455407 12122.879082 12545.201469 11777.486913 13919.078538 6740.260688 4053.776694 2860.797580 4158.234596 20784.103851 21990.746037 17885.201429 13058.283947 15119.851987 8344.179174 10714.806709 7851.736325 7966.632709 4493.243051 4394.453546 17624.108332 15837.107071 16141.509654 17208.582703 12221.626703 10844.957547 7512.754474 9000.215208 6017.961871 4724.438618 5798.942092 18373.625134 20838.412253 16452.811131 10248.310268 11878.484437 10072.525634 8342.586552 13503.172630 5417.408734 7521.398366 2076.754089 19208.410597 18676.160886 18316.414483 6889.213688 8031.727881 8150.715141 8082.794234 6928.911053 4136.329412 7134.023773 9916.773781 19459.481727 13607.822475 12901.478374 17473.545476 9263.336381 12753.128980 11665.286760 5357.653513 5527.469478 7779.045043 3017.110126 19428.615065 17964.991808 16698.430303 15546.245752 11394.332428 12191.827540 5456.871607 15351.223122 6787.797951 3341.033693 3403.350454 18041.675575 16786.855020 15634.590535 13340.262177 10242.496311 15745.436173 14912.058884 5348.595032 9428.974375 2805.548234 2092.168176 17867.189880 17944.799221 17381.364784 13774.130103 13707.722766 12219.203260 14582.631022 8935.892123 9831.708395 4206.805325 2707.431127 17534.725152 16136.727711 17662.034964 15099.552151 12088.879986 12724.274711 9282.300626 11541.961837 8710.053337 5434.815407 2573.019779 19524.458228 16792.520136 16092.542605 15338.167649 15985.276701 11271.539033 11190.150795 10476.215696 6520.207120 2956.534322 3854.724348 18997.673349 19068.865631 16819.772919 18441.826897 15195.070163 13540.712545 10310.019631 6212.066954 9926.210352 5540.426331 3991.435894 17587.993610 17089.078837 17418.438696 18865.755558 17518.450344 15318.728043 7039.977390 9838.745996 4950.688353 6489.898559 4633.898002 18440.474549 17075.956544 18214.081779 15760.649739 10948.721834 6897.909502 7103.516373 6835.235060 3817.009470 4348.109003 6133.043045 15810.538995 18643.955477 19820.986865 14538.452658 10135.535452 9752.574169 7691.419023 4478.568072 4119.980173 3609.297886 5133.685039 18678.637934 19067.849897 17993.590797 11927.562414 10987.689041 8981.153714 10594.710885 4990.005686 5867.228435 5833.343410 606.374336 18576.238846 16683.282516 16549.161150 7692.113095 15215.269537 8891.525549 10544.732147 7500.015909 9088.817634 3109.028554 4374.544687 17242.452542 17605.043718 18024.235881 16822.414186 12042.852630 12621.602173 12970.114977 15207.465117 5302.560519 5195.469185 3161.276903 17725.255231 17904.922597 17934.419671 15498.220911 14074.821075 12785.422019 10401.447127 11488.605293 5950.569003 3179.036704 5589.343504 17819.757647 16173.605474 17544.906500 13883.207849 12446.226884 11910.394122 9362.874124 5282.420823 7278.362298 3806.236823 2353.070967 19663.651974 17304.776024 16385.921771 14275.890422 16078.629800 11507.401693 4462.416686 5654.364234 8745.197281 4780.342395 1958.900902 16128.936060 17896.390881 17357.593737 16572.962112 12283.371237 14430.419397 16032.166901 6937.794109 4262.068555 5321.060030 3873.951743 19627.304539 16710.337780 18339.139551 15609.314455 14864.873148 13341.978276 8977.233547 10811.620880 4129.351326 4469.526163 3952.148500 18317.202152 17266.780521 16444.657640 16528.256212 13785.382529 16163.360622 12914.443282 6795.940176 8322.370340 6881.162117 4708.840701 18179.052732 17749.451410 17158.623847 13419.593356 9504.594675 13105.494636 12309.695417 6201.744051 7051.064549 4036.227013 5769.751275 18639.333183 19864.298877 16918.789210 17653.457342 12814.436027 15836.615114 10099.625106 8977.782254 4171.571597 4692.440396 1951.622362 18026.493010 16580.898702 15967.827063 16973.578774 13317.099581 8885.581540 7230.114809 7963.616196 5896.104890 5850.288185 7440.072736 18816.455793 18674.978854 13532.444119 13178.871521 12777.480659 11469.117924 12558.669951 5920.389506 8966.854138 5205.911411 2488.397143 18228.397797 17942.094783 18472.321274 17036.481267 10487.833054 10640.678038 10855.706822 6531.117410 6650.373740 7708.587199 6658.020611 18299.924886 18517.426530 16338.758304 14651.927429 12748.797864 13858.788068 7148.165298 12106.727532 8029.928896 7323.013032 5182.622447 18330.184472 15721.571981 17877.043717 16298.574724 14185.957020 11680.150797 10449.781806 8488.695436 9363.378830 7299.012137 5695.077326 17085.477379 17887.302727 17269.906895 15257.722959 10011.234751 14442.686624 12877.205870 6781.737404 11551.979559 6276.797049 2672.935009 17802.746690 16756.438326 13055.592120 18015.635695 14813.440224 15338.122085 10037.705322 7574.261458 7143.562856 2385.149713 4573.545076 17583.316447 18562.401694 15946.710840 17074.630605 14300.277108 10644.407617 10638.667560 8378.574620 6639.923323 4194.396697 3025.258260 15449.610188 18101.679671 14105.498459 16663.845071 13378.093324 9181.420610 12901.845452 6094.210691 7800.345637 10087.664639 8170.581784 18288.917527 18581.152676 15735.503440 18416.580165 12811.390295 11937.788745 10487.759210 7843.000504 7260.001676 5801.567714 3162.729201 17856.170523 17786.646815 14745.487590 15343.493715 13905.503851 10957.112017 8496.065555 9348.306269 5472.256615 3551.327317 6063.790560 16709.522647 15692.818714 18273.100474 13464.403981 15276.976272 13255.564255 15466.325848 10813.285414 7662.444152 5097.605126 5595.407085 16284.501795 16026.792468 16268.640801 18861.004507 12518.204929 10249.537681 11899.435136 7217.719540 8907.108744 1906.770070 7686.162007 16473.505409 17160.241214 17570.446715 13950.226575 11051.504981 13013.638708 9914.536354 10227.559598 9851.762571 4221.228628 1643.759550 16314.482415 16717.994936 17455.606792 13717.290588 14577.549482 13857.050217 11593.857510 9372.065278 10059.004510 9199.280239 6269.110448 17671.668691 16222.084604 17562.659469 14812.611891 15946.336530 12070.465696 9746.191630 7461.944075 10323.010558 7396.359754 3489.058820 16632.279916 14388.097447 15778.925835 14784.628848 13440.470348 11599.972156 8868.046549 12004.668030 7261.814753 6753.145861 5757.047415 15249.225094 13071.370800 13872.391813 17093.017777 12731.358098 9782.597623 10861.144044 8784.836164 8997.617885 6900.836460 5681.906841 16151.195906 14918.928370 10869.731159 12779.390320 13875.310030 11509.044120 10678.097303 10134.344533 2993.488145 4828.256731 3660.186820 14954.360276 14520.255158 13491.088191 13833.287707 12521.660643 10885.769411 11771.307710 9505.955131 7713.707627 8017.104093 7239.640546 15605.824306 14634.033172 14383.417274 14029.169023 12668.289591 12054.513492 8387.791653 8043.257326 7541.485513 3694.160132 4085.194672 15393.363559 13178.652403 13183.805693 14302.181116 13023.005536 12145.775469 11245.098174 13139.232430 9190.555878 5436.947255 2145.418831 15409.989509 16620.918939 13617.555698 13720.852180 9501.030846 10528.375219 10217.744854 10326.135418 6113.781390 4906.360549 7184.316226 16437.992506 14712.711266 13198.846191 14327.004211 10096.912711 11073.497400 11558.582358 9367.616751 10174.405789 8035.099018 6015.768590 13999.954956 14615.922204 12791.626623 14478.881628 9383.172662 14286.654440 9192.964398 12827.513391 6344.893229 4625.404703 6587.555491 14501.203619 14275.244264 13574.581940 13352.225536 15370.820665 11006.671818 10223.819180 12764.260107 10183.350172 4865.468497 6537.379118 15070.312465 14208.733563 13525.302039 15738.246275 14628.220264 12636.307656 9858.112500 13388.080978 8765.649046 7216.513751 3125.468364 16866.132024 13605.063500 12680.664495 11092.762861 14722.266819 14315.664007 10032.150632 11014.937893 5508.851036 5867.339491 6721.712716 14341.408163 13795.632039 14014.306120 14058.938475 11431.990138 9991.239027 10307.629855 8293.047990 6881.319795 9679.377297 4854.279693 15270.724608 13943.877492 15486.450323 12935.674776 10403.542574 12495.418101 11342.043943 8057.705160 5937.299793 5589.423238 3388.258405 15280.272892 16441.408661 14972.874147 15214.606862 14520.701976 7235.313171 9080.350454 9144.383598 9383.016664 8086.263887 10861.397786 15534.269271 12510.566322 15051.757537 15809.738147 14570.322470 9197.218911 15536.185466 5316.813186 10610.190366 8120.712051 2917.113859 16190.794895 17491.527840 16503.356629 15562.458429 11812.180463 15578.363737 12088.447593 9306.792575 7326.254769 7706.886884 6949.656036 16464.027501 16026.689286 15727.798957 14348.300936 12882.856107 10785.953065 13354.747473 14649.433283 7139.899727 8010.352312 7970.190285 25645.680631 31211.616541 30959.813283 26025.386031 19825.579713 26079.552821 22907.914044 30541.518501 30108.606260 22527.422353 21010.263193 15007.338363 14838.888939 6722.330791 26893.155204 18730.360055 29487.549105 25558.598924 16558.633257 28917.930655 17885.764722 16969.087788 25430.909391 13629.329490 18625.773085 15613.171640 7505.478257 21103.285247 14957.760119 19740.619460 21064.020060 14549.479519 14010.514519 13000.004036 17046.496396 15596.917149 22070.112065 16081.724755 9535.006568 8877.075162 11423.429292 8648.461830 19121.973206 14022.977239 17080.031601 20379.066559 19544.319782 18150.577993 18260.430443 20771.944144 11785.896936 21072.855389 18012.638527 14081.692032 12117.478448 9114.065984 19172.175572 26888.556177 17540.050449 16172.372565 24707.209400 20648.062353 19811.552362 15380.005630 17827.129385 9750.661102 16071.573329 12415.337615 8726.831772 13225.132078 15476.696047 24039.651581 17128.931807 24901.601301 22742.515618 24191.680301 25553.771034 16207.488317 11294.708801 15029.024448 10717.319320 12670.333511 19952.070443 9325.601447 25536.927433 6657.006758 14510.432926 17634.520709 8316.649755 22833.008313 20542.632696 23088.287306 12426.487686 12255.616876 12016.852835 9711.412657 9062.221265 3759.139009 12349.010249 11833.472154 13193.947012 23748.155376 15943.843059 19914.492202 8913.564067 9423.968298 5307.241095 10319.353712 13948.126339 9630.251898 6859.377836 5398.824827 21347.957096 20147.517732 11490.458012 8384.031732 13292.915031 9280.999298 9506.926979 8834.534864 5136.768000 15495.158411 10902.000736 9730.413857 6936.827011 10099.936826 6441.182892 15184.505203 12783.144649 10301.994527 14939.877896 8727.862762 14126.389240 12652.933635 16641.462868 6582.414735 7137.045112 2164.872650 4808.189091 8068.277349 8788.753375 10665.808144 22370.835881 16809.473531 5434.951545 9165.417303 9805.876378 18764.442637 8733.152968 14173.635893 20655.599583 12300.023920 5960.007395 7619.816326 10877.151709 6097.750725 14173.916431 22186.509403 9964.500839 14144.602540 6595.708577 15527.458011 9218.016670 11669.859156 9484.900999 20836.620657 4742.648025 6642.136063 6199.015622 5934.273116 1797.878624 14171.214741 7835.445322 5173.012785 12498.859071 19383.388536 17285.853983 8803.265453 7458.031600 7685.695423 4921.851333 9348.823672 2754.369376 8388.239665 7843.592066 5677.811070 9124.428441 3158.947378 8564.549418 13098.653250 10206.097950 12965.346467 9412.968205 2845.959385 2707.313253 7394.861359 5848.346182 3789.738390 4680.174679 4885.814184 3086.535296 2454.759142 7341.370367 3473.001897 2135.898932 3911.820354 -5.328345 -3308.397522 2424.130248 7093.550956
</DataArray>
<DataArray type="Float64" Name="Velocity" NumberOfComponents="3" format="ascii">