<VTKFile type="PolyData">
<PolyData>
<Piece NumberOfPoints="1945" NumberOfVerts="1945" NumberOfLines="0" NumberOfStrips="0" NumberOfPolys="0">
<PointData>
<DataArray type="Float64" Name="Pressure" format="ascii">
 18699.646011 17293.596052 17620.308603 16507.293092 18318.160217 17714.720927 18207.683777 17704.966171 18191.266652 18395.533752 17838.912431 17574.811679 19247.819553 17926.042927 20016.880971 19742.594436 19925.073746 19399.314126 20580.561984 19191.615233 20533.703146 19649.589394 21346.207056 20350.727578 22720.161808 21634.991754 21139.459082 21281.765204 20307.604968 20562.336345 20872.693130 20731.637959 19941.750479 19266.025242 19260.090202 18647.424618 19502.233980 19133.982158 19959.699348 19314.778609 20327.001551 19570.482559 21465.465817 20087.923837 21804.043856 19317.331592 20752.388768 19302.408778 19641.892662 18140.295591 21203.436251 18646.876189 23301.547844 21050.692467 20586.321213 18165.516464 18496.391401 17673.634183 18804.205364 19189.249821 17530.416680 17340.172982 19189.341004 19276.125314 17275.339358 16620.356229 18776.108603 18342.735170 17864.307849 16305.148817 19501.294768 19506.895219 17703.528927 18050.731752 18101.454302 17085.964330 19883.488463 18541.402372 19201.138964 17840.708673 19518.351028 17921.776342 19936.973726 18792.813421 17804.232781 16723.397630 18429.440846 17427.578137 20286.399062 18633.764859 21044.700841 18254.435884 25121.280122 21895.109620 21748.128511 20524.947313 20939.135681 20702.863822 21663.139682 20535.851279 22764.495790 23323.046552 18755.333591 18811.282229 22823.169134 21725.185950 26440.238200 25912.750407 22677.036504 21527.753068 26292.843719 24555.710633 25854.304886 23598.853136 25159.917616 24408.181718 25333.415245 25080.391213 24158.606599 24613.383472 22831.814490 23145.290121 26348.890975 25287.652647 26996.265541 24813.883133 30312.529914 28380.859860 28159.121222 26477.783305 30873.509011 30337.650430 28858.847508 27320.102943 30305.005249 29546.049294 26698.895914 25677.990941 26428.693316 25546.959534 28722.857216 27593.563939 26856.299783 25617.807790 26861.158722 25979.949506 30885.270714 29916.106872 30471.566803 30542.703604 27802.685276 27421.435999 32866.073003 31049.375321 32397.454006 30749.605716 29550.671020 29040.941413 32628.241516 31087.802290 36158.438461 33208.782156 30881.017433 29739.769437 34349.565494 32668.798500 35889.306059 34732.805626 30814.073169 30054.316968 33442.824131 32538.554821 36867.311591 34738.957669 36971.019881 35649.065007 33362.595267 33212.523360 32135.266561 33560.479006 29448.488954 33508.970584 27274.654019 29239.189117 31955.197188 34008.343849 31745.939851 33925.677175 35428.528846 37364.797052 34346.529772 34590.964141 31080.332112 32929.108630 31756.369388 33736.020304 31800.314362 33030.310411 30789.747249 32436.504570 31444.816810 33742.724226 30134.523787 33496.427599 27642.118922 31099.040311 28954.419029 32621.959949 29361.075586 31322.324109 16424.102141 15591.796679 14672.918735 13192.237827 11308.500547 9472.099568 7934.229771 6813.456933 5392.830347 2955.328255 1866.344661 2102.888532 -2601.846087 -4695.937151 -4313.619112 -5226.586393 -8921.932686 -10372.880284 -9387.736476 -8653.419815 -7981.246560 -7383.882502 -6876.312697 -6453.987581 -6099.151127 -5790.143225 -5506.933385 -5233.847719 -4960.383107 -4680.855181 -4393.463305 -4099.178730 -3800.700496 -3501.598653 -3205.680121 -2916.563319 -2637.424394 -2370.871609 -2118.907750 -1882.948086 -1663.870002 -1462.078074 -1277.574399 -1110.028170 -958.841354 -823.209086 -702.175306 -594.690495 -499.715092 -416.626230 -347.707077 16154.626391 15145.134134 14392.929327 12831.009070 10915.498065 8509.225876 7279.142433 6058.976157 5765.280076 889.093134 -3927.548078 2291.580878 -5451.371159 -6426.555118 -3768.010626 -4084.659958 -8275.480006 -10692.393036 -9388.902344 -8609.237688 -7984.902382 -7399.638014 -6893.638389 -6468.608407 -6109.671692 -5796.608772 -5510.084555 -5234.674117 -4959.856156 -4679.786858 -4392.452552 -4098.613301 -3800.788517 -3502.411530 -3207.195236 -2918.700447 -2640.073621 -2373.912894 -2122.223467 -1886.430261 -1667.423878 -1465.623339 -1281.045016 -1113.371477 -962.016731 -826.185980 -704.928010 -597.172995 -501.712536 -416.855948 -338.149903 36332.960576 34860.455893 32657.273750 31137.972306 29358.592502 28456.781798 25985.579986 24500.414282 23645.937428 18964.091619 16690.043997 14315.221019 12478.094411 14350.543401 11571.367585 11813.094647 11903.655332 15424.303792 9426.388848 852.588930 -1070.421934 -1578.824062 -1919.672318 -1617.590017 -1465.556706 -843.291444 1720.182406 9908.131365 -40.112357 -9055.899234 -4778.669201 -3201.855819 -2437.664992 -1741.909356 -1117.593690 -604.448842 -223.163932 30.028591 175.394109 240.151641 251.193193 230.950974 195.930917 156.968825 120.322046 88.974347 63.809567 44.516404 30.208153 19.782974 12.002904 32848.945547 32484.333854 30198.256016 28001.884133 26315.415475 24807.768531 23160.618731 21845.648774 19953.762492 17254.131418 15392.561430 13930.754854 12521.120970 11939.762558 11195.779965 10830.678396 10323.068378 9169.236700 6974.437881 3915.380345 1393.168938 -192.594996 -1044.361003 -1397.886606 -1349.197502 -750.017983 566.795385 1696.303451 785.918449 -1593.650615 -2955.362419 -2935.744454 -2383.994823 -1741.595250 -1135.660267 -629.382959 -248.609675 7.867175 158.270496 228.297939 243.922594 227.184579 194.561606 157.058148 121.170151 90.112702 64.957686 45.530481 31.042303 20.513026 13.160342 -300.357616 -278.852644 -285.253814 -265.275785 -246.306377 -235.624069 -200.758071 -199.622564 -165.515959 -165.786974 -136.281551 -136.726384 -111.817032 -112.234198 -91.383476 -91.746342 -74.386340 -74.696321 -60.310382 -60.573129 -48.705410 -48.926844 -39.179752 -39.365391 -31.394818 -31.549660 -25.059803 -25.188320 -19.926524 -20.032674 -15.784460 -15.871719 -12.456085 -12.527480 -9.792551 -9.850697 -7.669743 -7.716883 -5.984725 -6.022771 -4.652574 -4.683146 -3.603588 -3.628046 -2.780841 -2.800324 -2.138075 -2.153528 -1.637878 -1.650083 -1.250138 -1.259737 -0.950732 -0.958250 -0.720423 -0.726286 -0.543941 -0.548495 -0.409219 -0.412743 -0.306766 -0.309481 -0.229144 -0.231228 -0.170556 -0.172149 -0.126500 -0.127712 -0.093493 -0.094412 -0.068856 -0.069551 -0.050534 -0.051057 -0.036958 -0.037350 -0.026936 -0.027228 -0.019563 -0.019781 -0.014160 -0.014321 -0.010214 -0.010333 -0.007342 -0.007430 -0.005260 -0.005324 -0.003756 -0.003802 -0.002672 -0.002706 -0.001895 -0.001920 -0.001340 -0.001357 -0.000944 -0.000956 -0.000663 -0.000672 -0.000464 -0.000470 -0.000323 -0.000328 -0.000225 -0.000228 -0.000156 -0.000158 -0.000108 -0.000109 -0.000074 -0.000075 -0.000051 -0.000052 -0.000035 -0.000035 -0.000024 -0.000024 -0.000016 -0.000016 -0.000011 -0.000011 -0.000008 -0.000008 -0.000005 -0.000005 -0.000004 -0.000004 -0.000003 -0.000003 -0.000002 -0.000002 -0.000002 -0.000002 -0.000003 -0.000003 -0.000003 -0.000003 -0.000005 -0.000005 -0.000006 -0.000006 -0.000009 -0.000009 -0.000013 -0.000013 -0.000017 -0.000017 -0.000023 -0.000024 -0.000031 -0.000031 -0.000039 -0.000039 -0.000048 -0.000048 -0.000054 -0.000054 -0.000054 -0.000053 -0.000041 -0.000039 -0.000001 0.000003 0.000087 0.000094 0.000257 0.000268 0.000562 0.000580 0.001086 0.001115 0.001957 0.002002 0.003367 0.003437 0.005607 0.005714 0.009112 0.009275 0.014547 0.014795 0.022933 0.023314 0.035886 0.036481 0.056046 0.056996 0.087852 0.089409 0.138972 0.141586 0.222844 0.227313 0.363091 0.370769 0.600907 0.613847 1.007174 1.027148 1.703720 1.722912 2.911752 2.852393 5.189816 4.442131 7.658479 6.071085 8.832180 7.050232 15955.113033 17812.377725 14246.089535 17236.257858 17506.358421 11346.142007 15827.296518 15435.489016 13441.960886 11597.311493 14548.196141 18084.657702 15413.470680 13905.325551 16155.608336 12436.268333 9475.630074 11333.136377 12213.260864 11525.461394 15057.023076 11391.278926 18903.190745 17061.500416 17677.229974 17234.463889 14282.819142 16533.505038 7501.302572 16078.415189 14899.954577 3740.171522 19095.063730 16859.950195 16981.363496 17527.625055 10598.523875 15308.675699 15772.322988 13544.637735 7816.216890 15603.841241 6862.467779 16900.725964 13855.181494 9866.264970 17021.038456 18364.230505 17665.297749 16949.714310 17296.817600 14693.844352 8164.663639 12757.781342 12928.671165 14857.276461 17919.601138 18329.517564 21031.329756 17837.684134 15016.834653 18013.085725 16128.209733 12798.115301 9623.105476 17617.320230 14951.499368 17536.768645 20086.257631 18388.014906 17846.875859 14475.892972 15122.399401 14888.640309 12981.984564 15177.791917 8258.842083 17434.021967 17733.561103 18008.613126 17158.079085 18828.098986 12327.952369 13293.488422 15012.283365 14941.400193 10432.583453 9343.213363 19263.140574 19466.745432 17703.893922 17590.531787 17847.178896 14189.174963 12193.212698 15098.082379 13580.915568 10774.966047 14798.196701 18687.482197 16819.317125 13862.214916 16490.018501 8970.319879 17499.550062 11142.143123 12993.818476 14677.367905 4682.745450 12116.101131 19507.351995 15726.021240 18302.555841 7132.080064 17013.357677 10024.689398 12826.549917 7294.605629 8047.927959 5887.965210 3618.676948 18230.629624 17595.292497 12298.554287 17203.244377 7554.990287 13715.282751 7870.473385 9622.439937 13551.493333 10493.688329 10192.422810 16661.080382 15558.962115 16387.253346 13543.885643 13095.014377 12887.221113 14253.503727 10241.381631 14693.227054 13635.544371 10316.069772 16615.515339 15299.902723 17817.049671 16924.647933 14820.062830 12970.437169 13973.947561 11570.021647 14182.646873 7051.404865 6817.022957 18271.414853 16295.602181 16691.332299 15955.745624 13657.162029 16201.615775 10179.106699 11679.220074 3667.423511 8560.097953 5282.670925 18065.831417 16469.774677 17291.908403 14900.519010 9491.457084 10237.693075 8763.031523 4715.572763 3543.629308 1410.031454 3473.601750 17538.028790 17536.248107 15098.164444 17147.488534 14125.365000 14214.681173 10220.400775 12300.671461 5665.928076 1624.885390 2275.929663 18082.218576 14390.507382 15741.623791 12613.420062 8022.914057 5729.827320 4844.194480 4502.531973 2525.009999 1923.242262 1944.332535 16974.459359 14896.261739 13773.580924 13829.401465 11455.908634 6669.557125 8084.752335 5806.765337 6542.875915 3513.915303 2158.331598 18100.809953 17352.742376 16948.040612 11210.234015 7275.651134 7339.499191 6826.319595 5126.934519 2175.081336 679.462204 2194.331075 16970.693380 16242.409593 16310.472862 14250.169248 9084.208808 3721.257738 3583.107065 2905.994872 2035.112580 2558.236388 2039.952515 17487.299963 15240.634842 13709.777549 11751.843131 12230.635245 3340.286953 3883.502545 3846.745707 5247.830644 2463.551757 2747.066217 17445.900551 17112.448647 14538.167460 10910.186154 10511.034590 10441.894484 1677.529330 4449.573754 2560.186377 2771.855059 2924.162032 16008.310989 16392.936477 13395.219924 12360.531089 5179.241481 7660.053492 10477.293881 9642.417862 5951.430602 2806.645535 2759.661881 16721.279637 13471.973663 13189.970645 8997.947298 9255.290267 12536.545148 6509.749544 2718.254884 7899.950436 4178.577249 2514.678646 18182.065686 16282.690608 14730.216165 16489.391435 14157.392318 9508.835533 7193.097125 4636.626661 6717.043185 6766.359950 3216.728317 17308.991387 15467.418660 16241.809715 11667.785936 13596.931081 6295.805411 10305.452777 2291.083977 3519.311453 2569.719244 4831.179101 18203.661539 12981.345651 9916.936499 12414.275777 13174.313629 11574.021549 8853.301981 11954.871736 2228.175780 2653.486664 7504.221607 18213.647678 17923.148230 14310.256369 12643.156223 15724.739703 10480.217760 5142.292793 7129.176227 6150.752635 6720.225028 1507.457684 18285.915577 19016.735676 15168.344826 10191.328824 12101.885946 9904.914288 9678.790364 4570.255898 8709.235655 6141.335492 5418.926436 18495.432932 16641.149558 18958.988657 15331.797736 12569.658099 5349.178804 8828.488236 8725.466713 6468.640667 5066.067504 3554.029107 20883.104927 21609.098846 14495.095753 14673.943285 15144.070377 12671.058252 12649.923050 7896.599479 9516.807616 8012.562921 2257.887529 17620.297854 9619.319639 18127.589584 15816.805423 16526.794703 13312.330060 7097.023528 9577.681084 3674.974404 6406.159519 2377.509641 20897.296110 20065.860723 17085.836127 16158.881615 14941.381957 11787.456048 12151.284213 9378.522099 5818.025712 3733.321398 2094.047373 21169.623109 18318.450573 19516.488913 16755.380975 15562.040232 13968.671929 12040.183967 6463.311479 5343.598720 4452.298754 2255.695155 21288.869173 19859.294051 18107.891866 17143.685467 18443.770033 16712.138550 11815.506549 14853.718514 5188.138427 5395.545398 2875.394652 20210.057002 20598.211877 16070.252293 16093.632823 16941.892530 12370.015442 14578.995400 10973.262210 9860.257412 6153.435731 16624.725992 21087.320395 20562.535516 20798.192862 20523.089932 17635.711273 12231.066770 14582.067864 12224.777427 13213.594468 4388.210635 6622.524489 23036.947764 21323.381551 19501.434279 15635.733395 16159.652104 11806.439696 9966.363965 6691.780715 9292.558829 5069.466233 2746.080252 21673.341529 17390.120146 18908.356746 16446.001659 8048.436667 13128.706006 7199.406331 6542.851114 4020.240992 7942.873249 -9798.259605 23732.001510 21313.042325 22231.878185 19322.284224 17325.209283 11690.966146 8303.592875 6000.159852 10689.371187 3932.104201 6982.361062 21407.860085 20530.486001 21407.235989 17897.453852 13810.896860 13144.925267 18308.422273 7685.926518 5510.469645 3754.896635 4137.978125 23940.507756 21333.210182 20907.348873 17695.262052 17612.773633 12244.678089 11927.276202 10936.801497 5959.377306 4359.147542 6547.069996 21763.009288 20622.824705 21000.342528 22530.491651 16330.738377 14944.008928 9256.413472 7510.235886 5246.324866 5104.227044 -10096.319374 24655.041735 21979.352207 22504.999148 14289.693855 14911.091470 15029.887726 6008.690726 15854.454807 8823.198419 9645.963345 3421.510689 23669.781450 21566.188744 21952.032683 8783.380962 9252.380624 10505.644596 9312.347232 7167.342805 4123.326328 10713.077044 4292.210579 24122.128380 20318.778006 19388.537237 20135.236617 10308.083049 15454.527296 14119.785893 4133.906499 8049.278140 14597.808062 5225.154508 25197.137419 24138.998776 21327.735561 19964.982215 16728.350531 12081.503698 7181.449932 17945.316463 8930.958787 1731.538182 4296.116299 25141.099938 24579.608808 22331.641324 18364.972192 13041.253694 17223.366752 18167.204013 8652.045810 11952.970219 6328.000527 6189.010978 24895.499466 24169.079268 23728.658295 19254.923749 19372.823661 16292.542124 16843.169873 12034.262181 11962.790469 5794.021885 5187.212525 25490.686626 21352.450832 24417.800171 20022.374164 17483.701255 16715.667277 14567.375867 15584.222535 12004.995574 10344.437452 4933.181790 27598.485443 25024.511799 22973.565681 20877.073093 19074.144189 15767.446018 14580.084354 13180.069650 8745.183416 4923.890841 2895.547357 24573.431010 25411.657510 23845.773407 21927.040551 20811.799174 18182.910749 14844.408839 12380.543470 12176.605567 13373.026754 4238.629262 28226.508628 25477.695677 23127.997832 21800.028180 21077.471613 18393.579718 12262.476961 12962.852969 7234.462478 10030.428152 5585.767100 26637.926196 24770.238567 23811.875181 23572.158385 15967.823730 11833.887347 10757.031487 10790.371224 5150.463495 4478.421829 2877.186347 25699.809248 25771.402156 23387.858448 20601.234401 17104.805763 15784.186506 13344.881869 9902.142859 7220.491225 6114.581040 4409.170422 25930.920307 23971.412218 23535.800848 20909.076077 15618.831344 15396.497171 14328.490365 10760.405617 9911.901909 5587.656651 4375.882539 25800.984568 27003.974908 18778.801698 18278.025267 19357.044659 17239.316341 16784.559413 14437.352013 12392.500117 9355.132747 4961.266410 26155.843014 23594.100587 21335.292417 20855.279124 18348.755808 18322.041509 15914.728098 18394.839612 12931.067905 5083.582658 4919.750669 26511.217019 23254.316073 25476.230172 21940.655457 19162.430371 19431.001703 19286.130135 14678.702408 8926.449143 8846.862603 9414.783837 24749.066308 25007.060841 22482.131718 25423.715077 20757.591637 20468.374620 12021.106277 7739.482708 9185.871276 8170.889032 -20712.638232 27384.272865 25659.797277 23280.865188 21528.204095 21880.468552 18891.706691 12920.940255 8928.721715 14352.595049 8888.134685 3727.885877 29471.589565 28782.987645 23986.271216 21894.701917 22392.615951 17823.185270 22484.286426 11088.713463 6824.512943 4036.393616 5325.914067 29571.781965 25550.326545 27515.227731 22945.311424 23745.421904 21473.613788 16735.038501 15919.940277 5360.779326 4032.164557 2725.168422 30224.043203 24912.925701 27449.849493 24462.729791 19944.090839 24112.364410 18120.838277 14549.835111 14510.158699 9276.528690 10523.078447 28308.395245 28884.630897 26267.664464 24544.798757 22023.344038 20935.117997 16166.714936 15068.270036 9336.631242 5386.081067 5416.726641 30614.250986 29215.554662 25946.940499 26071.259148 19726.110563 19755.256548 17914.642972 11102.041829 9492.818772 6302.650543 8742.449212 29265.466259 26939.211578 26502.580556 24469.190605 19112.856028 16185.385073 12293.171050 15164.802442 9761.094637 7378.861206 -27.036644 27624.425793 27702.009177 25222.949034 24969.812565 21293.173197 15267.515498 19146.232221 12314.144029 11622.574443 5985.141398 5689.090118 29143.317056 28938.206189 28474.675993 26034.556764 21553.194247 17243.483903 19244.266758 12633.857352 8314.986334 10717.162227 19711.790939 27739.460821 29179.827346 28972.672550 25732.814649 22089.178126 21141.349436 8742.806352 16670.073907 10592.203080 7589.980980 2893.911290 30669.420949 26649.372068 28264.921928 29316.359060 24262.233404 24730.021406 17817.432239 12225.673642 9413.183427 9517.501933 5437.978747 28895.842167 29514.684298 32192.831437 25147.139893 20688.806964 21366.782056 20779.666079 13710.013142 14940.997491 5981.912468 -1835.504881 29042.579572 29264.120839 27820.585307 27962.195089 24220.438680 23642.911863 17821.993522 12107.181492 8103.416120 763.392181 3538.046567 32697.895482 31225.623919 28535.127177 23013.798829 24888.439028 20044.146830 18486.935239 17356.665445 8124.711522 8854.954125 -342.815896 32327.893731 31088.229299 26242.013175 28561.067357 23944.328470 17026.268285 21759.429503 12686.889238 14379.800173 16531.775130 1128.339631 31046.701241 30746.253571 30205.709581 31500.577272 23338.448564 22366.186693 17010.007710 12140.619465 10916.724875 6447.731839 3540.601862 33020.843139 31679.349231 30278.605875 29024.980075 25783.173463 23047.562764 15782.018627 17341.017667 12020.441065 5670.483740 15510.900063 34834.672706 30612.736562 30529.145311 27440.728075 26103.563392 25880.248082 23229.431319 13766.807220 16924.445482 8909.068592 12958.743523 30927.923550 32601.325336 28204.147576 27885.018986 24669.038515 22449.150108 20075.242592 15201.835287 14765.569011 10482.948442 9160.986960 33352.666339 31089.039071 32318.128003 25781.638717 27575.214885 21475.819744 17077.392871 19138.608838 14167.414569 5665.483936 10950.521171 32043.433272 31624.914006 28320.919069 29606.400738 26317.132999 22625.585536 20137.833803 17792.782405 14656.321533 12786.512098 14645.580858 32872.052768 30759.921015 29988.219066 29925.841341 28094.685391 27278.643239 23776.965119 16594.753692 16513.193231 11598.933811 5279.775811 35159.792507 30779.137257 30985.892572 30079.192632 27198.192235 24577.326316 19127.136096 16142.386808 15152.110565 12176.257935 18752.643977 36287.258908 30780.753272 31611.831475 27633.098612 27140.650936 19552.357283 22380.134696 19785.920177 18564.581753 10723.731429 8198.730751 33636.997316 32062.934852 29032.086461 29575.572353 26521.823297 23094.014533 20594.230889 18368.651347 7133.679696 15433.622102 13136.809515 33847.460190 29548.024592 30776.228936 29265.783106 24997.114666 21619.457889 20479.571071 14255.629335 15708.914490 10341.002884 18244.464129 34035.278305 34239.171767 28231.931001 28518.893880 24074.633948 28298.498891 20957.804027 16279.433224 15653.970407 2558.375556 -4769.840255 34062.164130 32585.420383 33481.180487 28515.124912 24131.157688 26024.644015 22772.617883 18874.468562 19129.078080 12343.052399 6433.298053 33482.513986 34498.624472 29633.866708 27928.342335 24154.910987 25743.549524 21093.881494 17015.667224 12146.316610 15020.770942 -1860.834956 34201.500462 31524.144818 32954.333309 30951.179095 27368.264728 26184.477324 20999.762881 21756.554409 20143.658322 17192.492784 7890.862572 32014.242580 32498.528505 28822.533789 33591.683181 24663.161635 25690.176330 18470.293117 21199.924784 18200.755809 11909.059513 17130.538592 32399.485884 31206.747574 33789.405647 31278.722811 30181.065062 21043.012590 21780.421848 21108.314683 15462.285675 9223.571743 22044.070532 35034.609293 34320.714155 33466.510190 30554.511336 25652.047504 25195.667821 25929.115639 24460.955560 19355.171589 16332.840495 -4769.840255 33031.162431 30487.396258 31535.221485 24974.021833 30028.358147 26277.239997 24004.978094 21332.072158 15962.577204 15948.198383 20048.145792 33886.445851 32334.698260 33984.148290 29190.637885 26455.244270 26449.630937 25460.899510 19312.650108 16675.190786 17077.474828 5471.366375 33679.874815 35263.211000 26667.025299 26233.149099 24800.439778 20214.384156 24638.056220 18414.976947 19969.194287 18349.852060 -7987.778293 30640.976482 33819.331461 33845.662265 33085.393397 25706.365768 24001.957897 21267.639177 23880.210921 19402.710876 17427.837516 21696.591885 33074.002574 26842.824606 29357.805047 29769.710121 33359.914671 22159.342876 30907.693173 19335.470761 21952.866013 15356.692641 23501.020568 33456.910766 32299.086313 34585.140706 34407.614932 25630.839747 32038.389031 27724.065674 21135.874182 19452.643279 19094.473240 21804.532449 36297.025518 35764.272073 30984.305582 34419.024778 30493.474911 24219.900245 31678.317609 32349.216913 17576.888112 18369.613057 17140.939136 11488.022318 16860.919998 16472.114936 13466.775973 9163.006236 14209.099571 13496.787166 11208.893911 13541.858632 11305.542504 8814.218624 8876.730043 3784.974562 -10570.601509 13884.149485 9232.859409 15734.334969 13691.268212 6312.370492 16104.454683 8990.608893 7409.449635 13173.288197 4871.542357 9895.457784 6720.529984 213.313794 8663.546619 7020.122525 10614.798973 9635.718555 4575.868660 8699.961520 5357.870128 11013.365606 9079.654259 11347.359031 7896.030322 5535.863040 5935.012535 8435.316075 4044.695930 10384.867230 9785.458307 11490.807423 12209.502121 8094.682418 9807.515625 11508.438605 9767.594006 7160.539904 9313.805363 8315.856980 5330.020471 3307.574590 1844.642385 11816.403309 17280.704715 9753.928530 7064.469210 13865.330352 9459.308060 9918.508349 10947.708946 5783.505490 2879.326815 6515.015985 4346.745687 4397.177795 1509.503749 9891.561441 13927.432780 7373.922578 17172.862958 14156.386227 12168.492389 13569.291351 5764.413255 5175.412446 7264.597775 6940.201979 5203.019849 8231.447067 2881.774196 17292.985096 2645.649069 10218.250475 7285.687849 4153.457735 8715.754204 9847.959229 10410.964382 6273.995265 4556.276275 6925.432702 5184.376216 2781.494376 3608.459858 8756.347084 8692.088307 8150.736561 11638.150255 8411.326378 13409.640481 7537.472168 6533.680261 1831.422631 4458.437367 4801.933270 5084.029346 3539.245042 3101.032088 11905.925975 12896.362149 5851.720666 4808.903633 11055.371585 5016.236554 6851.534725 4241.715391 4245.374499 7153.919736 5596.158894 5450.175562 1884.607358 1537.323549 6371.484059 6837.709829 10479.319578 6483.939639 9633.367751 3971.051105 8786.014770 5127.176502 9704.090710 4851.939245 3114.539053 4654.199704 1837.363165 1829.554048 3904.193331 7144.847316 12801.613246 7438.331700 5173.383155 4060.677612 3691.779959 8448.031794 8156.674368 6105.523288 9622.440253 4776.486789 5782.757934 5772.503004 8894.207164 3000.620761 7290.581959 12369.364393 3575.720959 7869.833442 3280.692491 8563.741751 3774.633481 7421.395054 4161.806137 11085.294700 3841.000199 2822.860346 3793.693307 1623.490211 1231.590177 3832.015215 2467.466387 1837.517599 3823.721690 11328.200875 11202.051576 6372.631788 2431.681932 3580.503748 1183.940714 3154.736815 2397.495822 2554.800707 3630.446355 1560.465961 5418.439989 1795.358671 4054.039044 6426.983096 2694.526130 8346.916902 4896.986374 2080.096032 2704.379218 3905.558391 3203.545323 2817.844493 1252.006842 1817.917024 2010.171571 1235.420704 6482.095640 2538.268533 2043.010465 2082.575124 1787.223805 2470.749456 15.725854 2792.195428
</DataArray>
<DataArray type="Float64" Name="Velocity" NumberOfComponents="3" format="ascii">