<VTKFile type="PolyData">
<PolyData>
<Piece NumberOfPoints="1945" NumberOfVerts="1945" NumberOfLines="0" NumberOfStrips="0" NumberOfPolys="0">
<PointData>
<DataArray type="Float64" Name="Pressure" format="ascii">
 16613.323536 17007.014895 17225.503144 17584.077900 17894.370946 18420.107466 19136.032173 19444.398078 19750.943989 19662.782125 19182.843571 19338.644129 19136.780080 19702.108794 19979.083282 20268.664302 20349.303962 20504.820172 19070.388221 19454.979758 20785.635249 21303.688305 20987.627725 20744.353926 19153.706833 18813.237657 21100.862354 21204.996308 19768.667087 20327.954193 19490.333880 19434.923386 21182.078488 20319.299301 21364.541600 20053.165303 20721.274352 19468.089432 19971.531812 19175.868060 19428.672559 18644.563374 20412.473289 20359.409199 19944.538837 19338.961196 20714.207634 19458.912624 21197.884535 18916.699104 20338.512635 18959.134675 18262.996017 17736.639225 19352.056271 19004.690598 20298.978628 19113.196768 19688.735384 19215.556650 18594.769135 18473.222739 18312.776729 18086.297881 19498.671948 18656.965272 19480.655744 18413.213305 19383.780189 19313.142291 18103.985076 17442.216350 21054.155153 20418.187372 19817.136492 18468.645170 21731.807026 21070.756568 20283.918743 18467.499924 21112.856165 20014.607233 18235.057930 17175.007089 19892.117891 19242.815644 20683.182241 20212.717810 22442.175415 20934.819523 22453.734506 21305.933514 20324.068990 19570.328669 24013.609925 22690.580393 24056.937832 22538.142416 25747.468154 22997.101496 19807.355849 18573.923329 22262.688585 21313.989579 25289.665701 24323.099622 25110.209504 23934.186315 27231.054513 27326.972698 21413.156055 23141.531746 23802.074993 24740.972541 26557.866467 25489.666330 26793.000496 25182.092984 29134.036216 27291.192521 27947.227137 25262.203502 30218.561219 28561.191586 28981.560573 28287.324768 24466.610064 24541.875516 27686.058179 26327.355944 30975.793999 30853.924713 22864.343742 24009.081499 26141.048180 27247.686156 28370.688263 29117.804369 25933.406681 27012.409432 27578.430254 26141.918610 34434.948489 31669.953337 27635.276325 26208.629021 28221.319429 27843.002581 27500.480570 25743.152248 32351.896745 28404.759949 27767.991039 25009.782440 30686.907497 30697.405175 22765.958362 22047.097521 26685.591041 28478.324152 22066.450158 24223.751711 27209.145906 29041.099673 25655.047932 25529.738475 26680.231879 26848.785118 26872.416793 29055.638384 24371.243521 27461.075102 28697.814901 30825.879890 27672.929749 29628.486497 30365.618324 35347.456507 21497.841493 24668.895086 29375.983278 30102.395046 34859.877557 37045.051352 26789.502247 29195.660619 26761.181774 29141.702359 22070.225943 24127.659803 27548.058115 30047.954772 27627.388729 28780.653137 25635.207554 27868.155017 25213.583596 27387.932912 24624.248419 25753.689899 23642.271874 24820.190353 23668.358335 23681.771985 23831.329388 23233.146723 21220.806008 20534.873601 20655.546249 19888.541898 17616.121131 16836.086181 14763.567670 12972.697058 11029.227727 9083.589575 8225.598088 6591.500670 4959.911525 3859.445787 219.982920 -3386.663313 -4159.336135 -3931.024937 -3487.268543 -6057.783484 -9673.314348 -9496.144392 -8970.103916 -8559.764689 -8102.522434 -7647.142275 -7208.048094 -6790.660599 -6396.786009 -6025.782001 -5675.353270 -5342.259569 -5022.956410 -4714.141085 -4413.157128 -4118.225698 -3828.506049 -3544.017158 -3265.467918 -2994.044180 -2731.192307 -2478.426430 -2237.174306 -2008.666709 -1793.868429 -1593.445010 -1407.757634 -1236.878456 -1080.619533 -938.569848 -810.137388 -694.601078 -591.219906 -499.689885 -422.969177 18328.120191 17201.510183 15606.123901 13894.190905 11298.657466 8125.776384 7821.368202 6052.823347 5013.664425 5307.542989 96.949411 -4397.337469 -4144.076916 -3818.028039 -2661.133834 -2388.445514 -6599.904274 -8772.744827 -8705.373186 -8498.972247 -8091.179170 -7648.131568 -7212.313574 -6795.797895 -6401.927930 -6030.503027 -5679.430493 -5345.611559 -5025.614634 -4716.221177 -4414.825640 -4119.666618 -3829.892547 -3545.491990 -3267.133236 -2995.959465 -2733.378149 -2480.871723 -2239.844764 -2011.513229 -1796.834385 -1596.472065 -1410.789991 -1239.865679 -1083.518091 -941.343150 -812.751454 -696.996982 -593.145397 -499.679509 -411.895316 19898.846643 19030.284214 19500.201401 19425.980184 18351.450774 18472.458618 15959.916416 12818.650180 11816.374104 11537.633426 11001.964611 5329.866232 5442.572699 1994.957237 -1586.593530 -1743.694306 2649.101600 1010.082818 613.180333 877.224503 511.156148 -74.054456 -722.186346 -1343.388280 -1886.018309 -2321.678422 -2635.829493 -2822.962337 -2884.666301 -2829.118491 -2670.788454 -2429.630659 -2129.519503 -1796.056312 -1454.103698 -1125.483681 -827.231608 -570.657887 -361.279454 -199.499328 -81.785681 -2.056939 46.988737 72.780619 82.105246 80.663135 72.902016 62.050396 50.268823 38.820846 28.031815 19232.826999 18629.286583 18654.774897 18072.295901 17587.259457 16515.279339 14907.351376 13205.584832 12458.462184 11096.317056 10231.412269 8159.670554 6516.155662 4565.738839 2626.937729 1881.542693 1956.024882 2150.690021 1839.851940 1257.817450 625.402998 -40.235156 -706.187318 -1327.220232 -1866.346122 -2299.060345 -2611.593213 -2798.509440 -2861.393940 -2808.377840 -2653.768554 -2417.204771 -2122.117331 -1793.607475 -1456.068802 -1130.962928 -835.122296 -579.823960 -370.698718 -208.364783 -89.552140 -8.437756 42.060996 69.212546 79.704631 79.193782 72.125898 61.757820 50.310822 39.224130 29.669393 -369.812093 -345.598160 -352.300600 -329.694111 -307.306563 -295.104716 -254.167762 -252.833288 -212.388385 -212.670841 -177.227548 -177.719844 -147.385153 -147.855261 -122.105343 -122.520692 -100.775704 -101.136025 -82.856438 -83.166605 -67.867143 -68.132624 -55.382130 -55.608186 -45.026664 -45.218191 -36.473080 -36.634564 -29.436721 -29.572228 -23.671831 -23.785010 -18.967502 -19.061600 -15.143774 -15.221657 -12.047947 -12.112125 -9.551151 -9.603805 -7.545192 -7.588208 -5.939703 -5.974695 -4.659576 -4.687923 -3.642692 -3.665561 -2.837916 -2.856290 -2.203353 -2.218058 -1.704836 -1.716556 -1.314622 -1.323926 -1.010287 -1.017645 -0.773784 -0.779580 -0.590652 -0.595200 -0.449351 -0.452906 -0.340712 -0.343481 -0.257479 -0.259627 -0.193934 -0.195594 -0.145589 -0.146867 -0.108936 -0.109917 -0.081243 -0.081993 -0.060392 -0.060963 -0.044747 -0.045180 -0.033047 -0.033374 -0.024327 -0.024574 -0.017850 -0.018036 -0.013056 -0.013195 -0.009519 -0.009622 -0.006918 -0.006994 -0.005012 -0.005068 -0.003619 -0.003661 -0.002605 -0.002636 -0.001870 -0.001892 -0.001337 -0.001354 -0.000954 -0.000966 -0.000678 -0.000687 -0.000481 -0.000487 -0.000340 -0.000344 -0.000239 -0.000242 -0.000168 -0.000170 -0.000118 -0.000119 -0.000082 -0.000083 -0.000057 -0.000058 -0.000040 -0.000041 -0.000028 -0.000028 -0.000020 -0.000020 -0.000014 -0.000014 -0.000011 -0.000011 -0.000008 -0.000009 -0.000007 -0.000008 -0.000007 -0.000008 -0.000008 -0.000008 -0.000010 -0.000010 -0.000012 -0.000012 -0.000015 -0.000015 -0.000017 -0.000017 -0.000019 -0.000019 -0.000018 -0.000018 -0.000012 -0.000011 0.000004 0.000006 0.000039 0.000042 0.000106 0.000110 0.000225 0.000232 0.000430 0.000441 0.000771 0.000789 0.001328 0.001357 0.002226 0.002270 0.003657 0.003727 0.005930 0.006040 0.009540 0.009717 0.015299 0.015584 0.024546 0.025012 0.039520 0.040289 0.063968 0.065242 0.104135 0.106249 0.170329 0.173822 0.279299 0.285008 0.457682 0.466870 0.746767 0.761263 1.208633 1.230947 1.933387 1.966694 3.046681 3.094221 4.716393 4.777985 7.160792 7.212643 10.684226 10.564873 15.994859 14.618705 20.977832 18.302314 23.165363 20.284779 17546.062459 19391.233931 16829.253121 18169.896020 18726.278358 11775.199609 17500.940258 16001.181617 13968.183833 13046.896479 16292.576393 18302.220491 17383.711482 13560.240046 17723.577827 13087.355975 8589.605168 13698.466030 13459.381251 10792.035877 14859.424935 11992.001292 19321.123819 17093.394170 19698.994487 18581.894549 16561.374880 18762.376583 9256.084639 16471.540173 12969.901636 3939.358091 18715.204428 19248.934780 20185.553511 18395.018513 10998.046768 14281.667843 18268.035781 12395.876429 8797.426529 14366.899008 7495.447274 14872.529526 12475.266710 8323.735342 19790.939092 20238.596032 18140.584023 15357.968122 16037.789085 16306.423411 9436.502948 15481.279346 15368.700107 15394.484354 18234.402427 17977.321674 19772.000476 17518.733042 15106.901566 19259.184827 16238.854261 12608.437029 11469.122093 18232.878000 15786.531857 16640.844709 19744.374967 17851.336557 17296.560881 14667.195891 15115.478291 15805.865338 13423.258047 14667.266645 6754.541094 17857.696914 17884.897051 17052.855336 17076.591558 20217.994673 12877.811558 14219.374786 15732.600173 15256.872752 10310.411273 10112.676508 19194.921334 20063.859930 17393.290770 18059.302736 17655.117955 14722.543546 11920.067982 16088.861202 14102.096948 11412.656310 14474.855976 19147.036247 16049.207921 14285.658055 16232.067848 10871.701228 18459.456740 12280.173586 13753.246389 15255.975811 4549.200882 13004.602183 18306.439533 15439.040690 18073.516908 6912.027986 17882.322578 10627.770436 15519.194232 7865.453509 8816.506221 7152.703939 5299.106875 17474.981229 17702.493918 11316.010152 16597.253775 5795.613133 13201.610641 9973.769360 10715.621602 13044.527576 11536.170541 9994.952013 19172.106197 15323.878802 16664.319310 13859.441419 12759.295522 14392.873050 15167.631426 10197.571216 15040.865777 15521.392479 9686.849067 17129.520793 15763.856894 17880.458122 17776.570907 15554.413453 13647.823619 14299.770733 12113.757505 14131.928894 7223.740186 8760.198768 18987.814886 16918.405244 18202.679626 16245.494744 12882.214883 17763.474041 11490.679554 11780.241744 4855.389111 7707.178238 6388.357268 18015.270713 17274.024232 16880.233163 14936.310623 10998.845348 10632.780305 8955.162342 7339.560635 4140.685678 4717.089251 3671.788910 17109.986288 18208.128473 14747.854874 17663.433470 14787.879533 15058.305490 11140.824036 13736.316655 7314.623375 563.818362 2244.018442 18098.594868 15149.844130 16179.380673 12006.566951 10054.733759 5962.145614 4012.651644 3807.622889 2381.685684 2595.571334 2844.559438 17246.431619 15328.398444 15398.784767 15445.538683 12310.621044 6240.229678 8198.919569 6910.002070 7438.793733 2714.050789 2486.948695 18847.275148 17837.838657 17301.931450 11806.605572 6759.370822 7165.451898 8768.766145 3196.785011 2495.973239 2639.941646 3669.375450 19358.870446 17529.578112 17551.749250 15026.455264 10460.134047 3789.792105 3230.908008 3912.098013 2502.179268 1305.881165 1564.025558 17812.618950 15877.546640 15271.153346 12569.390609 13216.401373 4838.241972 4693.055345 2792.363741 3925.885126 1961.402830 3956.790557 19142.228559 18132.376820 15534.893065 9510.553541 11612.120252 9255.112381 3812.081659 5057.260813 4044.107547 3077.789255 2379.820522 18117.608848 15855.441772 13833.599080 11935.128213 5933.932858 8556.771364 10651.190054 9453.021256 7604.012512 4213.686000 1924.059075 17690.774862 16414.053302 13401.590797 12054.614974 10693.696186 14734.519506 7902.882517 3928.570309 9021.141774 5216.613010 3174.534872 18145.863834 16625.533838 15584.808733 16485.753578 13881.914020 9503.882642 7508.355430 7421.146813 7117.930218 8741.445343 1428.952491 17952.061238 16923.026042 16585.620697 13454.644507 14605.724918 5490.379882 10617.310591 3472.166498 3947.100157 3281.306056 2768.069289 17555.212028 13093.016460 10515.167191 13705.752001 13030.718300 12173.723007 9614.283795 12495.001669 4922.960464 3735.729853 7846.676665 18384.233018 17939.190993 14498.524950 13653.795708 16546.016951 10396.911835 4980.260004 7269.291018 7611.786892 5999.636956 1655.702845 20177.679962 18167.518375 15570.999152 10547.888288 13859.088567 9896.338863 8934.052656 4288.164762 9459.662700 6167.277543 4062.389478 18212.956620 17816.767143 19366.269785 15616.687724 14101.091366 6164.232750 8653.339505 8970.194705 7382.804185 3161.925092 4604.457653 20445.530944 19756.656076 15357.380901 15809.379291 15336.149118 12490.176757 12573.450773 8050.939768 10862.144553 9740.865721 2024.402122 19827.689929 9265.762660 17728.861510 16192.530963 16997.753516 14651.797462 9081.365386 10170.412282 5095.001485 7027.364043 2382.932219 22516.072260 19489.490954 17598.726943 17607.420386 14281.522071 12486.884658 12343.667014 8995.496942 6159.960013 3301.129466 5200.809521 19335.117173 18535.671540 17981.768108 17599.242878 14978.397081 13408.549715 12150.723494 7441.116227 5041.278852 4617.111125 2722.427323 19964.758323 20515.887287 19349.311655 18590.017987 19286.320398 16234.558609 11875.861226 15198.173879 3772.046798 3954.618063 5727.353658 20989.180150 19974.238530 17076.862220 18078.889402 18874.397854 13632.427140 14034.016068 11527.203158 9433.749370 6827.930441 -8498.965477 20436.950331 21120.737588 19370.037854 20725.638389 18113.492181 11777.233862 14486.432700 12260.251477 14306.804804 4412.437584 5298.183391 23288.019447 22013.996984 18865.274920 14921.723551 16681.575449 10555.498523 9457.833003 5294.333240 9184.100405 4129.006788 1352.770797 23120.793224 18094.320133 20795.121953 16117.808979 9134.882633 13077.686408 6908.028895 6058.295725 4501.675867 9105.791522 43088.349380 23975.524084 23181.766714 23353.442747 19001.787149 18756.206902 11443.443859 9701.385959 6884.458412 10612.771230 754.163453 3995.905931 22597.438349 20577.953365 21225.156767 18871.182851 14594.446711 13840.948990 18544.868882 8485.223659 5083.994133 3822.985755 4682.563597 25401.397758 23172.540287 20296.320219 17209.289891 15578.180735 12113.581969 12447.725468 10023.057584 5905.507889 4547.491615 7137.457094 22727.493503 21074.570044 21569.744592 24440.619292 14579.122507 15295.464384 8769.577860 7685.551199 5383.029016 4339.461078 25375.356822 25039.252939 23107.700535 19960.225559 12786.224105 14947.409151 16571.616533 7173.690833 15079.192325 7395.331462 9275.750382 1641.192628 23462.313350 21358.856987 22503.123614 7463.188397 8804.898827 11028.502467 9070.901285 7974.753283 4485.462980 9709.593581 15937.080018 23303.966457 19721.405129 18023.862314 19503.574034 10308.496225 14135.786519 15582.774252 4627.007175 8336.775638 13785.454654 5227.309391 26787.116969 23575.046407 20693.576390 20133.948427 15114.632073 12833.429774 5012.672872 18020.398497 8167.104810 2820.967199 1581.122095 23642.338571 23334.793887 22577.662550 17260.893476 13030.408527 17584.351183 17717.803928 7990.324505 11289.862486 6178.207702 6242.086988 22177.088757 22974.547145 22254.941268 19209.726088 18367.311367 15998.210066 17313.481238 9884.586923 11567.119820 5337.894167 2221.189222 23136.064652 22275.312281 23409.279215 19575.141844 16841.819108 17323.899338 14225.740010 14396.801323 10034.130106 8700.916881 4330.857113 26475.543302 26747.254072 22062.714272 19132.942056 19469.094623 15303.598389 14175.526871 12513.495699 8925.924597 5477.072501 3671.593517 24741.292217 23144.428260 24633.539494 20591.872217 20814.847520 17336.893367 14914.303233 11332.688150 12967.280074 11483.333404 5244.496463 26644.764950 25876.483874 22519.249335 22508.406150 21003.804481 19372.280146 10784.277368 11578.705842 7342.090575 7830.534597 1935.421355 26530.231064 26136.034932 24380.853358 20651.318674 14303.090462 10067.099878 10039.218284 9952.785392 4170.109949 3853.697883 8882.653674 26039.629143 24303.212649 24038.850531 20038.676140 16226.254296 13228.988094 11924.645816 7500.321762 6165.632064 6811.651473 4510.830912 27305.154163 23608.253463 21549.217300 19139.178908 14428.675057 13324.032754 13870.339499 9193.530998 6984.732468 6224.784574 1757.590712 24784.426699 25415.353516 19140.633086 16295.108665 18019.244461 15155.959229 13118.867470 13871.182460 10757.887989 7531.851965 6071.044078 26796.257024 22667.169416 21228.098091 18972.291593 16848.094388 15233.448095 15601.099627 17586.260616 9134.809854 4003.956803 2443.718867 25360.865502 23243.634724 23041.909253 22542.904651 17570.714327 18394.927808 17980.521481 13334.295059 6851.478533 7158.449926 7082.126441 23346.658309 21526.582031 22341.627178 21796.784721 17473.329004 18474.645566 10952.208065 7087.211362 7181.767745 6177.258686 -6970.098230 27600.776088 23912.760489 22100.037581 20764.408258 20097.260770 17282.599578 11860.364967 8494.428715 11853.378211 4299.808242 3451.501324 26954.206401 26333.602263 21789.143236 20277.641165 18759.593186 14882.329408 18938.206465 9904.505960 5312.462636 3514.210151 6068.192579 26635.567127 25804.211185 24962.208979 19967.650988 20341.092016 18174.509173 13910.823978 13107.178329 3336.216352 5058.621667 5018.637213 25450.856207 24319.580713 25052.823989 20745.622998 18118.799903 20698.934337 16607.956384 11860.463318 11162.821068 4466.630123 -5300.265960 24729.046864 24727.060098 23204.022620 20819.815761 20645.161004 16859.729641 13030.468858 11238.932468 8555.692354 37.923850 1174.982287 27381.273258 25697.190986 23910.551334 21621.207564 16100.162658 19318.631669 16823.198818 8374.638738 6171.999256 4429.612469 2397.307115 25498.618989 23934.145401 23615.526684 22139.306231 18783.839825 14465.438384 10421.007537 13308.904960 7976.487356 3806.566894 8478.266781 23673.770931 27398.263874 23364.849640 21023.069061 19248.236416 11808.258647 14586.608274 9260.443821 11522.328520 5600.633808 9107.450646 27030.926646 24175.274942 23873.063713 23000.743325 21075.332584 14640.888708 14422.637264 8860.588414 6412.550178 5452.852510 3448.794186 26726.337510 25478.363956 24217.967049 23966.275719 18897.199234 17328.802124 6881.791640 13115.537823 9634.198598 3262.361809 10183.826203 25448.816109 19836.202172 23426.441142 25121.785451 21850.810666 18234.228177 14361.699349 10046.079053 6082.488897 4866.457182 7555.420194 26098.362247 25199.528979 28045.094028 21061.099779 16941.780268 18120.602338 14597.596624 8563.104755 10880.891245 -11119.786677 5055.198738 25892.983817 24098.200263 23217.826398 22646.658773 22224.677253 20357.349890 14304.568544 8669.027551 2772.701951 841.063285 2894.057202 28074.167000 27495.748888 26116.140821 20915.970225 20974.430174 17162.954216 11613.459995 10171.845201 3784.060776 1626.722410 -4431.593928 27384.167353 26281.387921 21945.623437 24288.150572 19888.546299 11256.324220 16038.438170 6683.841693 8550.568378 10679.496881 1490.770720 26437.909329 27975.335954 24704.026818 26435.458706 18564.110208 16880.337856 13247.510427 9402.510154 8845.391942 4570.971432 15868.795806 28199.995905 27705.173386 26217.108600 24923.093668 19979.351294 14789.488091 12604.460653 11534.820971 7688.503086 848.584048 6320.750122 28811.950744 26345.454710 26395.828958 24159.595386 23230.878708 20252.874924 18013.402521 7731.696299 9322.194041 12487.833692 12055.407955 30216.173211 28855.390189 24382.244869 25150.125618 19745.841884 15929.951381 12041.805529 9846.920224 6374.035352 8247.422001 10834.119809 29434.191137 26184.196282 27350.469073 21215.127586 22083.320144 15428.392159 10323.453830 9665.926545 8192.862168 -2290.092360 456.078093 28918.923893 30499.701636 26631.714989 25770.382608 21960.279823 15588.247294 15068.357946 11291.737483 8934.831117 7175.802683 5181.661979 28886.915322 27022.506441 27086.565720 24656.814459 24067.523767 19187.150120 13636.528853 11110.337393 8122.139650 6040.836400 -7170.003518 29701.741278 26355.411611 25646.292681 22708.795774 20184.165866 17645.495598 9339.761863 11733.708098 9443.095686 6989.278500 2645.220029 27084.016406 27629.334498 23935.076310 24334.293318 19517.688252 12302.031471 12346.432247 8367.246779 6579.956620 12661.376520 4867.537406 30520.412989 27261.870973 21930.705120 25473.807128 18197.561397 14879.583430 11413.913429 7480.132568 8667.048042 1749.032479 4836.201567 27455.002906 22796.817339 24842.403281 22565.799886 16171.819984 11130.800466 11479.878981 9755.107582 9450.595177 -4607.848357 8045.898159 27905.231068 26739.424405 17343.628191 21666.344719 12842.833043 19609.453977 9238.570803 7434.078287 6578.724850 -124.940078 -14170.949283 32156.512016 24533.034353 25572.602250 17407.890197 18605.185639 17584.541992 12051.598529 11158.181460 8153.906984 9909.409197 5790.556155 29748.926441 29357.548720 22755.203413 18706.786106 12197.493217 15858.464409 9474.898471 7750.970039 9814.990380 6860.791093 1068.906908 26514.140983 30590.367680 23882.918788 22121.710401 21292.889595 17985.199752 5416.635712 10957.913739 12045.676327 9350.447142 6637.036698 29148.690776 28916.591395 19173.198987 28843.212684 15791.043149 18099.076927 8568.920629 10968.034841 6272.722303 17803.237267 3781.090804 29556.056574 23867.729350 26736.025116 25116.576682 23661.329723 12664.637403 10761.671861 11759.381005 6148.262066 16348.924745 8752.117726 30026.080403 27267.378652 24671.470691 22825.013936 21932.042761 15533.250010 14974.472054 13136.746524 12231.216666 7438.483519 -17625.683444 27733.614172 20416.600878 24234.904272 14677.131580 19454.088445 18390.914633 13759.683939 14191.868282 9113.207250 4944.438589 8662.956554 29081.505199 23537.779928 24725.248384 20553.019436 18225.640381 16482.493795 14994.829255 8367.043278 4215.445272 7866.658296 9671.190516 26096.560662 25425.232452 19419.735165 16589.432107 15539.543066 13418.945233 16956.587761 6327.444938 11445.902457 9280.672897 -921.734936 23091.493282 24650.526157 26530.802001 23547.405088 15727.576526 14145.173549 11880.641123 17823.236949 14071.275107 9046.203107 13625.515761 24735.527637 17547.545216 21301.923995 21176.935216 23539.747416 12981.331323 20115.063785 11887.186701 11883.981049 4154.696288 12214.566982 22375.100862 22306.682207 25877.807882 20986.533765 17918.305924 21058.830282 18787.340668 7658.201750 11163.464218 10018.700953 4276.947447 22687.577497 22234.152021 21871.248066 21286.980718 21241.030923 14731.234819 20771.835277 21551.011212 11257.660791 6581.176584 249.915013 14728.710701 17379.304906 17866.227985 15230.616663 10427.967244 14677.356337 13399.420964 14115.805897 16120.768955 11677.385839 9413.824264 9720.539703 4034.599641 -11010.041715 13856.664719 10042.041029 16293.583275 14056.053677 5357.339634 16709.333410 10820.610537 9129.395814 13786.317981 4299.263845 6488.251702 6127.245184 2355.660505 7833.927973 6409.705863 11142.061984 9970.072904 7102.473208 8478.049622 6314.003497 11905.740637 8500.470129 12321.373862 8931.231835 6695.230298 7973.751575 7157.291657 4932.997682 12043.065342 9124.816358 10664.780566 11285.916688 7454.492881 10227.326372 10962.002995 9990.576140 7419.775455 9226.785563 9371.960980 5451.683372 3716.321122 -7.654934 10705.912660 16205.369648 9859.835322 7222.908015 13523.920293 9904.033643 11541.272924 11311.994808 6878.339148 2197.753846 8108.686811 6484.753783 3700.539184 5449.146720 10322.644490 12711.660129 7318.081462 16662.042385 13860.370381 13292.775782 13759.398739 6103.240633 5484.800314 8063.824824 7054.208615 5261.982974 8684.965703 1654.026691 18240.215183 2277.295869 9953.011689 7598.749849 2879.121992 9826.847917 9580.071906 10159.443413 7303.511089 4057.762603 5479.612466 3438.431255 5224.421216 3750.594076 8283.389575 10369.681307 8003.270837 12136.322513 7384.424098 10540.587753 6296.129041 5011.524155 2534.638657 3551.870321 6493.261295 4860.175481 4469.065397 2792.452038 11699.660404 13150.971276 8032.925621 6005.309780 10086.674592 2886.972908 7333.129955 5217.343321 4077.091794 6652.575892 4802.258117 5534.992895 3159.281688 3178.463193 6587.310008 6959.190879 10049.870699 6840.544745 9824.796955 4646.648250 7597.938667 4700.933295 10512.255229 4782.506453 4297.640828 1943.009174 -383.302453 2624.417606 5517.444250 6926.384751 13805.736210 9073.253412 4841.594201 4446.154332 3189.121871 9395.755225 6363.176490 7065.725231 9931.850329 5465.278943 3322.442476 2388.798303 8156.715997 1813.752364 7380.088565 12761.988432 3371.499348 8042.330118 4578.576695 10143.751374 5337.330885 7868.634063 5637.925781 11274.764873 3793.258080 3322.297433 3671.004900 3789.102860 1572.598214 6462.599891 3647.672698 2124.227752 4574.087815 12495.373086 13171.294961 6892.175927 3157.866280 3384.512306 5095.657655 1921.002951 1944.788669 3052.776960 5766.525206 4698.877802 4288.346362 3337.345559 2689.194148 7561.250793 3765.665727 9216.903476 5450.427710 1765.661843 4853.864205 4692.227718 2961.800486 2106.242575 2691.599432 2028.972358 2975.815072 3437.555384 8274.277054 2158.133273 2496.687559 1599.298454 4153.765154 2196.513475 2658.385588 2282.865249
</DataArray>
<DataArray type="Float64" Name="Velocity" NumberOfComponents="3" format="ascii">