<VTKFile type="PolyData">
<PolyData>
<Piece NumberOfPoints="1945" NumberOfVerts="1945" NumberOfLines="0" NumberOfStrips="0" NumberOfPolys="0">
<PointData>
<DataArray type="Float64" Name="Pressure" format="ascii">
 17948.346211 17651.906403 17868.569275 17656.429113 17524.965882 17532.358292 17501.714397 17447.011069 17406.328196 17231.270962 18707.112223 18614.567957 17420.656055 17496.433851 17510.949253 17399.113254 17531.152351 17301.908205 18271.491550 17658.044840 19464.408820 18087.363771 19395.248040 17536.973390 19198.715455 18160.842000 18095.089349 17917.965362 19128.306262 18416.128400 19710.663039 19489.166074 19480.910610 18660.422205 19660.562409 18686.163239 20550.989386 19822.014594 19759.061668 19099.892452 22414.690980 21552.487671 21245.712123 20474.708037 23123.451245 23946.789690 21300.406571 22831.371609 21426.662296 22419.401625 20516.546818 21954.393443 21092.238986 22190.070809 24294.816893 24425.233586 24699.592727 24793.897469 24738.492250 24339.731751 26951.913898 25950.244587 25704.788191 25513.294849 24975.513064 24215.458998 28615.525512 28379.376958 26274.919882 26590.701878 25532.414167 25140.168264 27416.146186 26252.574052 27682.316342 26930.491091 24792.359291 25557.134243 24837.551267 24547.735859 28123.027778 26673.844039 29735.013894 29054.437011 25964.770885 26113.105966 27622.875084 27721.809261 28595.650426 27759.518102 27132.446809 26379.350938 26867.580373 27934.575791 25599.354751 26165.652568 28844.204214 27813.529001 30749.041165 28499.714870 30025.811006 27878.293784 30379.767952 28749.367827 29375.637116 27901.011050 28489.965575 27597.224236 27364.839745 27741.609467 27132.211525 26686.835066 25102.706231 24986.536329 24233.342905 24038.010163 25706.215918 23781.476636 23452.859885 22109.419955 23998.313355 22586.351126 22710.281837 21174.362698 26375.339479 25674.916611 21739.663977 20744.634386 28335.242574 26281.309369 25904.634566 23553.767104 27447.520282 25314.842091 24556.474406 22874.251658 24632.622995 24887.278174 20520.389909 22548.623919 21204.258476 21223.097611 28273.456471 25574.658702 23259.174930 21624.933938 23113.348833 22774.553850 24827.599737 23884.296070 22989.101615 22700.950254 22814.311597 21946.305028 22485.603299 21339.613897 20963.909134 19567.420719 21372.581017 21361.676500 19512.142567 19423.574608 22065.613901 22318.070186 20809.319395 21871.571033 19975.426895 20696.789626 19681.315091 21043.976476 17401.007300 19082.730064 18491.395858 20252.863876 18269.596348 19753.763578 20032.103063 20224.655041 20494.302533 19161.139438 19800.137742 17563.571550 18085.061307 17067.806374 16461.421788 15607.061931 16129.574569 14686.476065 16208.289613 14034.267959 16845.454663 14559.068130 16119.897958 14573.031719 14222.560194 13244.698640 14035.402303 12717.748382 13489.528241 12387.218057 11360.830694 10342.238282 12575.924645 11285.973575 13873.461964 11850.703289 14269.559255 12325.291333 14985.576490 13500.260272 16981.025282 16267.113583 14826.419317 12791.422872 11541.207172 10329.892945 8710.458146 6688.309441 4152.215223 1703.897174 485.498716 121.294357 -47.604444 -620.563860 -2976.543923 -5917.433043 -6556.919719 -6561.532216 -6672.637547 -6746.669426 -6753.000487 -6694.643254 -6578.897982 -6414.358946 -6210.001860 -5974.536191 -5715.977797 -5441.405155 -5156.850028 -4867.288973 -4576.710035 -4288.229938 -4004.237598 -3726.542814 -3456.514133 -3195.195770 -2943.398996 -2701.767732 -2470.821067 -2250.977109 -2042.563199 -1845.817368 -1660.885270 -1487.815961 -1326.558939 -1176.964189 -1038.787506 -911.710945 -795.438563 -690.222014 -600.283151 16937.439486 15700.134378 14474.022031 12492.904069 11701.176727 10352.235299 8910.196526 6855.247510 4567.840842 2139.122514 960.804228 371.194544 69.966731 -381.429200 -3036.962804 -6187.327766 -6689.180311 -6499.799897 -6652.335371 -6731.545976 -6739.776350 -6683.013990 -6568.983804 -6406.246115 -6203.665342 -5969.856353 -5712.774495 -5439.467720 -5155.960639 -4867.240077 -4577.316183 -4289.334335 -4005.714051 -3728.294152 -3458.468309 -3197.300828 -2945.617812 -2704.073202 -2473.192119 -2253.395704 -2045.012324 -1848.279889 -1663.343497 -1490.251704 -1328.953772 -1179.299136 -1041.038210 -913.814826 -797.089756 -689.630268 -586.280329 9220.590555 7783.362350 7018.579035 5815.559821 5008.575601 3871.519343 4154.918594 4049.678241 3867.690114 1608.968940 -32.889038 -928.265042 -1110.054851 3182.005861 4633.213963 2732.558330 1513.838122 698.579846 202.184264 -107.220987 -329.758078 -522.820116 -710.903752 -898.456856 -1079.929791 -1246.221460 -1388.298498 -1498.972986 -1573.598471 -1610.171179 -1609.118522 -1572.929529 -1505.711008 -1412.717403 -1299.885573 -1173.398249 -1039.295888 -903.153104 -769.831360 -643.313999 -526.623402 -421.813861 -330.028497 -251.604920 -186.212663 -133.005708 -90.775322 -58.090974 -33.417465 -15.172866 -1.606719 11546.874146 9884.606634 8552.144744 7091.379080 5650.348273 4392.875023 3989.662184 3354.558536 2802.065702 1945.987160 1361.223067 1309.695415 2032.751426 3332.820355 3590.231417 2644.941833 1554.929957 755.256986 242.169926 -85.924295 -321.074360 -520.452668 -710.476459 -897.533508 -1077.463431 -1242.007936 -1382.583271 -1492.205087 -1566.287856 -1602.809505 -1602.136345 -1566.674166 -1500.436731 -1408.583793 -1296.961961 -1171.672954 -1038.689190 -903.532753 -771.029351 -645.143258 -528.893147 -424.342627 -332.654131 -254.191251 -188.652915 -135.223051 -92.721361 -59.744390 -34.793294 -16.413556 -3.526072 -536.955566 -507.943043 -514.735807 -487.367298 -457.986870 -442.928984 -389.648685 -387.902053 -334.213892 -334.484425 -286.224881 -286.780872 -244.350791 -244.902758 -207.881418 -208.384828 -176.238850 -176.689321 -148.895536 -149.295510 -125.363020 -125.716165 -105.191077 -105.501286 -87.967764 -88.238926 -73.318968 -73.554874 -60.907343 -61.111627 -50.430733 -50.606837 -41.620228 -41.771370 -34.237963 -34.367122 -28.074748 -28.184655 -22.947641 -23.040778 -18.697508 -18.776114 -15.186644 -15.252720 -12.296478 -12.351804 -9.925414 -9.971558 -7.986807 -8.025147 -6.407106 -6.438842 -5.124150 -5.150322 -4.085637 -4.107142 -3.247749 -3.265354 -2.573926 -2.588288 -2.033793 -2.045467 -1.602214 -1.611670 -1.258470 -1.266103 -0.985551 -0.991692 -0.769547 -0.774470 -0.599123 -0.603056 -0.465079 -0.468211 -0.359974 -0.362460 -0.277815 -0.279782 -0.213789 -0.215339 -0.164045 -0.165263 -0.125515 -0.126469 -0.095760 -0.096505 -0.072851 -0.073431 -0.055265 -0.055715 -0.041806 -0.042154 -0.031536 -0.031804 -0.023722 -0.023928 -0.017794 -0.017952 -0.013310 -0.013431 -0.009929 -0.010021 -0.007386 -0.007456 -0.005479 -0.005532 -0.004053 -0.004093 -0.002991 -0.003021 -0.002201 -0.002223 -0.001615 -0.001632 -0.001182 -0.001195 -0.000863 -0.000872 -0.000629 -0.000636 -0.000457 -0.000462 -0.000331 -0.000335 -0.000239 -0.000242 -0.000172 -0.000174 -0.000122 -0.000123 -0.000083 -0.000084 -0.000051 -0.000051 -0.000020 -0.000020 0.000015 0.000016 0.000062 0.000064 0.000132 0.000135 0.000242 0.000247 0.000418 0.000427 0.000702 0.000716 0.001162 0.001185 0.001905 0.001942 0.003103 0.003163 0.005028 0.005123 0.008106 0.008257 0.013002 0.013239 0.020734 0.021102 0.032846 0.033412 0.051639 0.052495 0.080483 0.081761 0.124218 0.126093 0.189646 0.192352 0.286105 0.289935 0.426072 0.431378 0.625714 0.632896 0.905250 0.914724 1.288888 1.301025 1.804037 1.819065 2.479369 2.497233 3.341251 3.361405 4.407949 4.429104 5.681058 5.700866 7.133634 7.148338 8.694709 8.698833 10.230117 10.216499 11.519442 11.481383 12.225277 12.172560 11.829664 11.886458 9.264438 10.429614 5.754346 8.408053 3.966996 7.015705 15740.400284 17198.587600 13279.644368 17646.275750 17813.052991 11363.275093 14141.659291 16041.056327 14067.203585 11689.646194 14159.662685 17715.753818 15014.950606 11495.103673 16945.620969 11199.298353 8829.436920 11544.535061 12256.153201 10626.695881 13307.606514 11954.930908 17347.008952 14366.873802 17745.771355 17395.679942 12918.778146 15675.609780 9544.032834 12953.978385 11595.854901 3582.272868 17200.242811 15038.882431 15075.566324 15824.166162 8657.901390 13658.843548 15170.286148 11497.026968 7212.305892 12305.923336 8075.641900 13875.827788 12674.279412 6096.215817 14843.379399 18084.501643 15879.653757 13689.245963 14427.090568 14258.385016 6119.882879 10934.218246 12002.835766 14266.850043 16712.680660 16488.142259 17989.291059 17026.034675 15284.171420 16340.702469 16175.946336 14243.940220 12555.849347 16085.539682 17738.709463 15394.186406 18334.593381 17076.940293 17223.674821 16339.616148 15728.015303 17424.757649 14838.176456 14025.306721 7903.854829 19666.618090 18236.885098 21578.226304 17250.332013 18291.393329 17604.360429 13846.460978 18069.262115 18486.729299 11675.158303 12121.725752 19217.252217 20582.054412 18059.128836 17986.066264 20733.030643 18020.541297 14013.731327 17604.734154 17859.238471 11935.351311 16242.658820 22973.712373 19798.097742 16098.071389 19975.355473 13333.703628 22691.874750 14487.415010 16775.850262 18239.838523 6949.355954 13926.087124 22033.254277 19535.046127 22821.978021 7157.393961 22444.091531 13874.164812 20150.582297 10405.094898 12472.961583 10142.288581 6248.274274 22102.040247 22583.791256 12772.630740 22652.000406 8822.127573 17510.396957 14713.516194 16401.519434 16847.292800 17762.004873 16341.520253 23269.098843 20491.685740 22140.721890 19741.226371 15172.068552 18794.312038 17154.215992 13324.542283 21360.194448 22394.410990 15416.456858 22771.267552 20928.144988 23124.414641 23084.653020 21108.975907 19839.096826 18963.709288 18258.798385 20143.042886 13108.821452 13159.604215 24450.051814 21625.505031 24022.486775 20748.060108 18264.365446 23091.412579 15734.800426 16517.505519 8000.819660 13936.620423 9847.284783 25162.898774 22906.824453 22380.780838 20120.120434 18969.239608 16170.241324 14837.213623 9834.866451 7332.219437 4984.356666 2961.027356 22350.624949 25542.461145 22164.917912 24186.052983 21318.540360 21074.669291 16802.691714 18013.492162 11362.646523 2695.908169 5917.575586 24682.306128 21342.879080 22638.548822 19114.586400 15323.152762 9357.541601 6076.349090 8417.984036 6588.627777 6087.409173 4699.045283 27486.018067 24355.332560 23100.006071 23185.913357 18711.361544 10570.256611 14687.152880 9798.810370 9450.212356 5677.333392 6271.506400 26917.643681 23991.476921 26524.349493 19071.675230 12517.018194 12276.655206 11395.046574 7801.709750 5868.243540 2887.191675 4063.679627 24981.549153 24775.776536 24563.198014 21668.150159 14407.785336 8453.106234 8466.978236 7270.116430 3909.447505 3971.355749 3529.808686 23611.622015 23000.215252 20912.318651 19518.561526 17629.117754 8551.352069 9133.754313 4987.919694 4882.506737 4630.403884 2962.396751 26204.846945 24015.032865 22214.035047 15010.832099 16891.318519 15151.962844 5848.574280 7611.467261 5283.846669 6921.196644 1963.833750 24098.805612 22368.908032 20106.776023 17340.147019 9183.826426 13144.660924 14724.292111 12274.136320 10044.413547 5368.412186 2064.550879 22268.416056 22017.233660 20206.871799 17388.036712 15308.154129 16673.296606 11621.721987 5224.471275 12845.117307 6124.513787 5058.911989 25293.267617 23397.920551 21877.048359 23957.835926 20395.363899 12696.102071 10783.587478 8318.656155 11729.095964 9740.397373 2467.200988 23673.566457 22257.723506 21473.151617 16481.593681 21037.127742 8501.819162 15183.447146 5986.315433 6659.599569 2599.767685 3106.818202 22361.842682 17622.011294 16184.857042 19524.133536 15102.323620 19436.832980 11936.831413 13876.347829 4771.492203 3380.217664 6585.946725 23061.085242 24600.249251 19573.237834 20090.980863 18331.848522 12989.016611 6276.823619 8667.182456 5901.049494 6044.092877 3513.430324 25085.091148 22094.159857 18086.673927 13782.995076 15566.238411 9665.396565 11744.351976 5983.130359 9939.429525 7246.969480 3236.979826 24720.756993 19380.348934 23988.944868 17113.350103 17107.370684 6688.624687 10408.751202 10019.603054 7171.708332 4864.267894 5238.754954 27025.330842 24827.907506 18618.549363 19427.934736 19248.003038 15727.238877 14607.699619 8600.560066 9970.229424 8160.633085 1286.438500 24496.756621 11268.100331 19820.418354 17500.107061 19976.002839 14313.841719 8409.530966 12051.375468 4466.829200 6152.806548 4443.969823 27241.061345 25363.417946 23821.221306 19310.698671 15630.191091 11561.279025 13473.140356 10158.421095 5990.713868 4457.457034 3911.089959 25181.397677 22436.770720 19779.746382 18096.300294 18344.121517 14694.544515 13677.727355 6683.991068 4645.897366 4680.240316 2495.361082 26502.323324 26083.104388 22071.299474 20221.349685 18220.711839 15746.866462 11747.269985 13323.185578 5803.314293 2730.582766 4320.051064 25203.781446 24942.041695 17958.742098 19523.092978 21515.260709 13292.612169 14572.834485 10766.918422 9584.690998 5111.796559 -1365.445229 21134.251760 21385.279744 22386.806242 21140.125754 18216.829196 10363.827188 13138.250172 11328.114778 15553.487258 3656.717739 4664.793841 27563.961859 25837.742704 21739.998952 15947.373451 18372.793633 9991.779796 8275.166833 5186.416535 6726.504264 4231.512338 3415.847211 25393.709600 20861.666918 24011.479953 16679.239934 6422.210634 10686.766053 6308.005294 5807.256311 4940.160179 8073.593316 880.771074 27736.072073 25757.861954 24735.095487 19264.309407 17892.637014 10960.915518 8069.376361 5608.223205 9330.496440 2383.901380 3011.716573 23203.935636 22812.092668 21292.768497 15770.175106 12294.986804 10899.636638 16190.939120 7057.910832 4913.917446 3362.799720 4052.670905 26956.823377 24649.565511 20233.072122 16073.647228 15965.313833 9777.996325 11366.617195 9204.444423 5956.939321 5234.896839 6434.795924 24210.495756 22553.026610 21681.651129 21769.726930 12296.832873 12179.265654 8273.444893 6754.444604 5725.807774 4877.603457 3648.161003 27545.466133 23955.317441 21384.184189 10686.778125 13809.864390 13216.998770 7159.525675 12615.507913 5312.462335 7705.761782 2280.329085 23999.669017 23098.675508 23520.235783 5956.317898 6039.941176 8010.131235 8696.621646 7006.700170 3899.690851 8644.515610 13019.219777 24517.355502 18246.849595 15796.022863 19603.384466 9112.668388 13673.337222 12684.077985 4051.636002 5890.754590 10811.915187 4251.725441 27031.393488 24666.475361 19483.170343 18666.687569 13111.377859 10925.068133 5645.394849 15513.259622 7788.322817 2097.288435 2622.035836 24152.774286 24474.657254 21647.652419 15510.487670 10294.807980 16126.668094 16004.200063 6636.069340 10180.452942 3398.923220 4249.881470 21400.678913 21470.529868 21032.691892 15873.489657 15989.929993 12943.225111 14622.933985 8646.017871 10462.369925 6030.388893 2088.791631 21807.363016 18738.006304 21456.611268 17818.389487 13345.031122 16002.126278 11146.319710 13125.645091 8784.871020 7794.681208 4775.535987 25875.350136 24618.571021 17877.343081 16423.382637 17150.021943 13328.463368 13477.888179 11129.858532 6391.307696 5584.226180 1114.164614 24359.583812 25223.801405 21346.666959 18738.919636 18194.443962 15176.690991 11343.303882 8880.940928 9964.843521 8742.262743 3159.743684 23599.507634 24431.654689 20950.894146 21264.909256 18804.011258 16156.751677 10117.551111 9444.153370 5202.849187 6217.950896 1766.455839 25058.053918 22697.335443 20907.491696 19477.817949 12741.259953 8920.691177 8369.331682 10207.388245 2792.153309 4169.166426 -334.701769 23905.935447 21638.585651 20275.875095 18246.619516 13589.464921 12741.191698 9957.787895 7266.157447 4712.491962 5388.210545 3601.934672 23156.375344 21477.867107 21497.246743 16358.652773 13670.883168 10886.901524 11821.240518 8598.651963 6486.799293 4804.173047 3582.717668 21955.028430 19482.865304 16811.552827 12428.127438 17079.275139 13551.725419 12913.542115 10292.742035 10029.111527 5545.725530 2328.270552 21988.474816 20824.365536 18933.990506 18858.211515 15115.755515 15219.808841 13047.077475 15840.003962 8258.517273 5122.467941 4144.431976 20623.684926 20012.279353 20807.075339 18674.559585 17584.742983 16046.332195 11714.576663 10941.843812 5233.246036 5807.405149 6412.504749 20390.562140 19414.146747 18233.528722 17757.160238 15366.323175 15314.759675 7776.000005 6936.838215 4989.637647 5296.585342 1324.316823 23732.047453 21601.579281 18746.288266 16363.272156 18418.530563 15390.137299 7341.920787 6719.718910 8459.382708 4034.725682 2417.211425 21478.119883 21488.807194 20605.844750 17274.215817 16593.888221 13304.041413 16881.368494 6664.875359 4733.891342 721.380083 3757.616823 23995.720897 19863.860863 19376.441411 17277.930764 17336.223882 15483.482779 11136.568546 11071.679311 4219.432078 2089.363490 2636.708816 22406.620194 21199.874655 20714.972557 19103.527278 13495.080858 16661.459304 12442.688083 8488.325186 7459.847596 4888.989766 5214.760581 22544.287583 21012.242580 18952.283445 18234.043588 14652.690640 14598.916075 11181.891818 10960.231111 8250.412579 2994.701741 3438.903202 23886.195153 22332.484182 21389.783163 19859.885798 11565.683983 13888.086291 11586.272613 6409.414452 4652.932338 4751.628641 4086.404294 22218.576730 20019.772233 19512.280637 17935.274084 12221.888413 9668.338695 7482.503614 10163.536356 6721.573614 6375.581853 2450.360022 24778.249296 22867.486347 17225.002797 16635.447750 14897.560219 9554.002969 11091.264033 6487.985308 9642.872665 4853.265329 -413.625822 23738.792457 20503.950324 20348.518029 19059.859382 16501.156540 9702.823274 11706.073069 7950.667824 5899.058654 7227.989256 2357.671257 22905.468373 23986.196046 19753.123687 20390.487829 13411.690745 13861.860389 7151.956919 10823.528864 7897.907371 5600.463060 2585.887329 22420.344902 15713.463664 18373.768741 18784.232972 15648.621926 12297.358139 11692.721060 8424.701090 8030.595567 8679.299956 3406.490888 20850.945805 22805.620973 20777.104637 16891.549200 11793.146312 14489.990047 11535.472173 6858.371534 9372.370471 2650.778173 2264.841532 20717.376339 20078.763499 17950.850728 18229.224842 16432.243594 15613.261899 11468.743776 7745.453765 4304.563404 4656.165211 3202.460752 23021.771091 20176.509376 18712.614686 16899.483135 16690.384849 12976.263017 12412.638906 10571.929473 7590.804565 4622.716486 -3605.080058 22173.701847 23440.882759 17500.598438 18719.462896 14418.275297 10072.828221 12738.827197 3464.582480 4838.221279 10065.546290 5328.519445 21066.427186 20969.479845 19964.666653 22210.340265 12472.958822 13110.768740 10238.419504 8080.885056 8312.919027 2149.457119 5066.371392 18501.397813 18796.481929 19109.579943 18236.366499 15208.490102 12082.962319 8867.315288 10774.283655 5088.589340 4691.977616 8320.182141 20683.477077 19001.371790 18404.404077 18733.132802 16595.869912 14180.300697 14316.560737 8295.331412 8379.112203 4092.591906 5264.020481 19495.489236 19281.746262 17396.573483 19063.485865 13985.459346 12237.642660 11994.727007 7762.787060 6242.257550 3332.063702 6997.133003 21652.818239 19499.369937 20074.460792 15936.300354 14762.134016 12348.914829 10571.101917 10671.814518 6778.906401 3708.978531 2258.655139 21073.311314 20393.701362 19545.852183 16889.278751 17010.056701 13567.834277 10802.315480 10863.008870 8793.297398 5939.815671 4851.687540 20414.467162 17482.689991 17676.600598 17460.702950 15952.553357 14034.760426 8669.394629 8155.437041 6777.436772 5929.191783 4621.516465 21394.275410 17931.380288 19457.291016 14531.098991 15100.857767 14038.802629 6929.947096 8595.040809 5214.014657 5419.140767 2198.428344 20308.338645 16305.961232 16409.148634 16900.578033 15896.459020 9515.774586 8137.080958 6646.123721 6736.877946 4982.909145 6114.692998 20387.367462 20486.006591 12258.139675 15500.200555 11701.779205 11380.401192 8595.836889 7197.707351 371.974136 2838.156795 7168.887687 19342.458435 12889.453424 16016.453534 15411.865856 10591.934814 11971.613874 9767.634178 5623.320327 4719.219506 8423.558216 3528.429819 20075.180842 17661.827821 14585.763626 13812.906965 9880.151436 12462.300085 7720.608855 4795.105881 5404.317582 1786.352963 -752.375009 17669.199358 14569.847249 15278.667815 10461.618066 12599.150381 10476.887391 8138.413752 9233.564448 8663.240107 1917.158616 347.380929 18750.087463 18258.608638 11944.427807 12806.473690 9122.202415 11355.015272 8795.158753 7975.924720 4417.613199 2096.581053 4177.210590 15792.792491 17212.260217 13954.150920 11352.533204 9989.462125 8497.473914 7385.336305 8364.212057 8407.980413 5941.174070 1450.454528 13528.167759 15441.799652 9724.508522 15293.101011 8843.959453 10179.025807 8162.054033 7666.487210 5754.553229 2734.699537 7376.970153 15049.562985 15988.793146 14166.240532 14622.324369 15846.752580 9628.218501 10416.598634 8444.661341 8138.534201 3069.275257 4025.369692 13816.468277 12907.670799 11982.526043 10507.350712 11208.203639 8992.931722 6782.083251 10141.769055 6904.458232 8473.322402 5343.512024 13254.339006 14265.173063 11167.188019 9014.174598 8534.158006 8884.877514 7426.838480 6924.496909 5392.362844 5683.807647 5928.375101 11387.413602 12018.567993 10402.381570 10854.301482 7934.232550 8614.861934 7240.581418 7148.942314 7390.997586 6090.638488 9971.665927 11163.570192 12007.639086 9603.232123 7127.220577 6752.889749 6264.831237 9439.690173 7943.162347 6184.505651 6494.484674 168.887863 10456.798803 10441.301233 11240.483006 9093.813238 8485.837171 6670.690803 8015.252198 7252.081234 6646.883944 6948.020042 6914.169713 9578.677809 8268.146815 8838.696799 11393.616564 9186.203825 7945.520801 8678.046945 6646.620896 6674.786925 6469.637998 6325.839892 10314.030979 11718.248817 12179.193580 7580.989280 6355.087289 10356.268102 7187.161643 6937.243269 4613.282435 6890.424675 4835.688693 9220.679501 9319.984719 8212.273685 7895.038373 8053.220616 7003.265873 7917.221104 10573.932389 6670.550929 7912.712626 6049.201671 12829.285841 17264.618770 17184.631223 13535.172152 10549.042580 15022.348189 12364.245662 15158.366707 15241.346579 12494.314118 9540.319157 8495.348273 5728.030129 -5463.130474 13634.124752 10361.564790 14535.724983 14619.453951 7014.756502 16979.841060 9079.102965 8105.248185 13694.874690 5485.216723 8449.903342 7736.358624 3013.845216 8931.653811 7083.114168 9721.764474 9303.328360 6097.029587 7210.221068 5964.288447 8808.861484 7503.650899 11784.477173 5579.856808 4511.999707 4839.722543 4419.893334 4360.601565 11148.017218 7064.205144 9136.164372 10232.243267 9749.522403 8322.192430 10861.684912 9549.034630 3466.160190 10455.637208 8796.364392 4947.680407 5316.827642 3188.304615 12801.887855 15832.465781 8052.602800 6977.984246 12764.205793 9081.395004 10040.964133 9010.862490 7554.005307 3452.445944 6928.093132 5643.418495 3992.026997 3170.143498 10117.237247 15887.083971 8957.794481 15102.946335 11298.457285 13209.120533 13927.962932 6570.898621 7271.814673 6674.183787 5523.692575 5189.538026 7838.886219 2792.448597 19956.522495 4339.438232 9628.104570 9761.992903 4047.244291 11138.999306 11325.308927 11962.342321 7132.248532 6029.911734 5617.465068 3899.684557 3379.073559 2513.053248 10287.496442 9704.863855 11673.339285 16183.928113 8301.967290 12958.328797 6062.987420 5057.770411 2886.604630 4600.308810 7554.536628 5545.016151 4768.718877 2506.911762 13536.621909 14156.220576 9243.013385 3389.024411 10495.942066 6546.948284 7582.086291 5452.126426 4044.012762 7934.429169 7513.043652 6419.303053 2072.543053 3706.110133 6129.769322 11118.309385 13528.794452 7570.837402 11224.051769 4942.068460 9958.392234 7395.531659 12787.238884 4712.489296 3661.061486 3352.327122 2951.819016 3194.712438 7578.192924 12193.898393 20116.993716 16514.303227 7360.311025 6971.347778 7017.891938 11743.559398 9251.290190 10047.013585 10541.386195 7800.874662 4515.259271 3123.153232 12478.115136 5115.972398 11554.562118 20020.952883 6833.529409 12768.475537 4053.268476 15523.755965 9322.278766 9262.095770 8220.041834 14098.950021 3021.856817 4277.466742 8166.853726 4715.178056 3332.885551 13204.186887 6945.837498 5314.073155 8706.750516 18754.072213 19143.840663 9347.369049 5044.305830 4917.443969 2772.578117 4190.420376 2079.418707 8781.521439 6493.224286 5946.098585 8477.804382 5625.394730 8487.626970 12813.933659 6527.467871 14589.270549 6846.463006 3151.537804 4741.258798 5217.506835 2565.100165 2841.192590 6099.747962 7360.330860 1652.432540 5221.732279 7279.387373 5560.639783 2835.870532 2697.060966 4197.308181 3423.256692 5203.266039 4336.438198
</DataArray>
<DataArray type="Float64" Name="Velocity" NumberOfComponents="3" format="ascii">