<VTKFile type="PolyData">
<PolyData>
<Piece NumberOfPoints="1945" NumberOfVerts="1945" NumberOfLines="0" NumberOfStrips="0" NumberOfPolys="0">
<PointData>
<DataArray type="Float64" Name="Pressure" format="ascii">
 6787.409663 10466.972522 11747.051646 19823.632100 15026.910963 23341.744363 15342.665036 21318.429026 15823.479090 22151.011993 16178.855933 22062.969498 16582.365134 22627.499092 16899.395840 23020.318593 17166.707917 23487.335599 17367.698261 23893.353495 17508.860535 24212.688330 17601.920292 24445.684411 17659.473495 24601.361905 17693.160248 24698.602642 17711.886748 24755.712949 17721.810581 24787.393913 17726.842623 24804.090334 17729.290050 24812.477091 17730.433747 24816.499995 17730.947660 24818.344098 17731.169645 24819.151233 17731.261709 24819.487730 17731.298296 24819.620818 17731.312189 24819.670442 17731.317211 24819.687712 17731.318929 24819.693222 17731.319481 24819.694774 17731.319644 24819.695123 17731.319688 24819.695159 17731.319697 24819.695138 17731.319699 24819.695118 17731.319699 24819.695107 17731.319698 24819.695102 17731.319698 24819.695100 17731.319698 24819.695099 17731.319698 24819.695099 17731.319698 24819.695099 17731.319698 24819.695099 17731.319698 24819.695099 17731.319698 24819.695099 17731.319698 24819.695099 17731.319698 24819.695099 17731.319698 24819.695099 17731.319698 24819.695099 17731.319698 24819.695099 17731.319698 24819.695099 17731.319698 24819.695099 17731.319698 24819.695099 17731.319698 24819.695099 17731.319698 24819.695099 17731.319698 24819.695099 17731.319698 24819.695099 17731.319698 24819.695099 17731.319698 24819.695099 17731.319698 24819.695099 17731.319698 24819.695099 17731.319698 24819.695099 17731.319698 24819.695099 17731.319698 24819.695099 17731.319698 24819.695099 17731.319698 24819.695099 17731.319698 24819.695099 17731.319698 24819.695099 17731.319698 24819.695099 17731.319698 24819.695099 17731.319698 24819.695099 17731.319698 24819.695099 17731.319698 24819.695099 17731.319698 24819.695099 17731.319698 24819.695099 17731.319698 24819.695099 17731.319698 24819.695099 17731.319698 24819.695098 17731.319698 24819.695098 17731.319698 24819.695095 17731.319697 24819.695087 17731.319693 24819.695056 17731.319681 24819.694952 17731.319638 24819.694610 17731.319497 24819.693526 17731.319044 24819.690192 17731.317639 24819.680285 17731.313423 24819.651886 17731.301213 24819.573447 17731.267114 24819.365071 17731.175453 24818.833678 17730.938722 24817.535539 17730.352435 24814.505037 17728.963142 24807.763047 17725.820806 24793.513505 17719.055129 24765.002791 17705.230698 24711.245199 17678.512566 24616.179963 17629.852974 24459.256268 17546.710304 24219.743763 17413.996562 23884.526838 17217.061778 23452.554867 16947.759652 22968.106197 16605.822823 22503.431087 16201.538101 21937.017826 15825.174395 21977.270974 15418.661201 21165.369699 14868.694432 23193.718609 11132.685803 19089.701544 7177.984548 10202.259670 12305.586180 11060.959722 9094.907540 7061.233040 5201.064479 3634.460183 2421.925134 1553.679103 972.290847 606.973308 390.072318 267.830611 201.989498 167.375270 148.607616 136.501745 125.430452 111.606356 91.924288 63.597753 29.644163 30.583769 66.084067 -387.487412 -2143.273268 -2553.923441 -1493.013928 -641.993307 -262.448301 -102.161522 -38.029640 -13.605713 -4.700254 -1.574261 -0.512948 -0.163067 -0.050702 -0.015451 -0.004623 -0.001361 -0.000394 -0.000113 -0.000032 -0.000009 -0.000002 -0.000001 -0.000000 -0.000000 -0.000000 -0.000000 -0.000000 22320.472315 19285.179457 17056.811818 14351.969673 11495.535998 8594.416846 6113.396474 4116.052547 2666.417393 1681.071604 1052.224651 674.539307 458.348256 337.547347 269.235002 226.184507 191.826944 157.372395 117.911392 66.114296 2.447879 -6.115690 480.239353 -3.448689 -5026.193432 -4432.373398 -1485.488233 -710.462613 -310.092311 -126.663706 -49.104870 -18.229555 -6.520442 -2.257610 -0.759456 -0.248978 -0.079751 -0.025014 -0.007697 -0.002327 -0.000692 -0.000203 -0.000059 -0.000017 -0.000005 -0.000001 -0.000000 -0.000000 -0.000000 -0.000000 -0.000000 21877.608477 18617.669370 16380.126814 13666.415285 10843.639091 7995.726512 5545.261735 3590.231520 2567.895580 1051.343774 -4105.954748 -3589.340626 -894.903964 -374.435615 -152.876572 -59.687343 -22.302623 -8.009206 -2.776630 -0.933002 -0.304915 -0.097202 -0.030301 -0.009257 -0.002776 -0.000819 -0.000238 -0.000068 -0.000019 -0.000005 -0.000001 -0.000000 -0.000000 -0.000000 -0.000000 -0.000000 -0.000000 -0.000000 -0.000000 -0.000000 0.000000 0.000000 0.000000 0.000000 0.000000 0.000000 0.000000 0.000000 -0.000000 -0.000000 0.000000 11228.040481 9888.871940 8205.348201 6447.245297 4801.841787 3381.338426 2244.886618 1393.417133 781.679566 260.810174 -881.393712 -1231.893652 -796.000405 -398.536064 -177.346386 -73.220117 -28.592693 -10.672679 -3.834294 -1.332532 -0.449730 -0.147873 -0.047494 -0.014933 -0.004606 -0.001396 -0.000416 -0.000122 -0.000035 -0.000010 -0.000003 -0.000001 -0.000000 -0.000000 -0.000000 -0.000000 -0.000000 -0.000000 -0.000000 0.000000 0.000000 0.000000 0.000000 0.000000 0.000000 0.000000 0.000000 0.000000 0.000000 -0.000000 -0.000000 -0.000000 -0.000000 -0.000000 0.000000 0.000000 0.000000 0.000000 0.000000 0.000000 0.000000 0.000000 0.000000 0.000000 0.000000 0.000000 -0.000000 0.000000 0.000000 0.000000 -0.000000 0.000000 0.000000 0.000000 0.000000 0.000000 0.000000 0.000000 0.000000 -0.000000 -0.000000 0.000000 0.000000 0.000000 -0.000000 -0.000000 -0.000000 -0.000000 -0.000000 -0.000000 -0.000000 -0.000000 -0.000000 -0.000000 -0.000000 -0.000000 -0.000000 0.000000 -0.000000 0.000000 -0.000000 0.000000 0.000000 0.000000 0.000000 0.000000 0.000000 0.000000 0.000000 0.000000 0.000000 0.000000 0.000000 0.000000 0.000000 0.000000 0.000000 0.000000 0.000000 0.000000 0.000000 0.000000 0.000000 0.000000 0.000000 0.000000 0.000000 0.000000 0.000000 0.000000 0.000000 0.000000 0.000000 0.000000 0.000000 0.000000 0.000000 0.000000 0.000000 0.000000 0.000000 0.000000 0.000000 0.000000 0.000000 0.000000 0.000000 0.000000 0.000000 0.000000 0.000000 0.000000 0.000000 0.000000 0.000000 0.000000 0.000000 0.000000 0.000000 0.000000 0.000000 0.000000 0.000000 0.000000 0.000000 0.000000 0.000000 0.000000 0.000000 0.000000 0.000000 0.000000 0.000000 0.000000 0.000000 0.000000 0.000000 0.000000 0.000000 0.000000 0.000000 0.000000 0.000000 0.000000 0.000000 0.000000 0.000000 0.000000 0.000000 0.000000 0.000000 0.000000 0.000000 0.000000 0.000000 0.000000 0.000000 0.000000 0.000000 0.000000 0.000000 0.000000 0.000000 0.000000 0.000000 0.000000 0.000000 0.000000 0.000000 0.000000 0.000000 0.000000 0.000000 0.000000 0.000000 0.000000 0.000000 0.000000 0.000000 0.000000 0.000000 0.000000 0.000000 0.000000 0.000000 0.000000 0.000000 0.000000 0.000000 0.000000 0.000000 0.000000 0.000000 0.000000 0.000000 0.000000 0.000000 0.000000 0.000000 0.000000 0.000000 0.000000 0.000000 0.000000 0.000000 0.000000 0.000000 0.000000 0.000000 0.000000 0.000000 0.000000 0.000000 0.000000 0.000000 0.000000 0.000000 0.000000 0.000000 0.000000 0.000000 24481.333591 20130.832836 19350.674182 16905.019122 14860.956952 11901.396991 9262.832069 6708.270336 4598.101393 3011.458275 1896.755517 21427.386807 19484.332816 17207.803746 14785.074861 13232.772195 10667.518836 8687.422177 6508.525082 4617.443588 3120.435970 2009.203351 23671.616626 20781.594537 17954.889388 16145.080484 14338.068888 11621.414215 9590.475966 7229.336875 5176.989843 3527.007349 2277.817487 22633.368060 19735.214569 17672.403275 15964.259279 14233.182124 11822.613172 9934.162500 7578.012509 5486.104349 3754.050044 2419.238728 23427.915450 20669.485925 18368.078200 16400.421779 14719.093573 12335.153464 10396.319858 7976.261378 5806.112053 3982.202249 2565.135531 23713.095000 20800.511043 18541.393397 16718.490595 15124.742910 12732.510445 10769.673705 8299.258526 6053.828600 4150.650995 2666.945953 24226.613830 21249.567698 19008.248653 17164.666889 15528.304228 13102.598783 11107.029477 8574.229237 6256.605193 4287.012288 2749.134699 24702.990932 21650.758499 19397.356573 17532.153796 15876.134099 13423.906923 11385.026599 8790.256279 6411.976303 4389.445856 2809.529545 25095.805538 21986.761687 19727.358680 17850.349536 16171.098282 13681.749945 11597.947920 8951.575018 6525.578666 4462.417450 2851.270936 25401.935335 22261.102407 19994.941525 18101.680397 16395.988716 13872.294232 11751.843219 9065.454390 6603.046157 4509.636881 2875.869158 25615.993055 22458.142500 20186.460432 18280.393320 16554.438778 14004.338576 11855.599556 9138.673652 6648.152068 4531.127661 2880.460671 25755.326117 22590.260810 20315.253472 18400.152742 16659.271407 14089.174628 11918.566645 9176.767370 6661.979452 4526.249034 2864.299263 25840.294656 22673.126752 20396.193314 18474.781978 16723.174060 14138.123340 11949.297847 9184.562574 6650.585008 4494.850581 2800.100856 25888.975748 22721.722433 20443.653692 18517.908204 16758.585466 14161.645468 11955.400014 9167.957651 6605.250375 4353.415354 2565.002081 25915.369304 22748.578721 20469.753129 18540.908446 16775.727329 14168.503116 11944.952326 9133.240445 6511.306007 4116.415607 2502.606496 25928.955087 22762.585086 20483.159816 18551.983713 16782.180074 14166.029205 11926.097335 9087.381759 6388.343590 3832.154592 2206.074216 25935.603899 22769.469970 20489.537865 18556.593379 16783.218762 14159.980860 11906.226572 9045.364384 6298.579258 3630.219822 1861.113521 25938.698718 22772.650384 20492.308054 18558.078218 16782.123319 14153.933068 11890.494075 9013.930720 6247.674737 3527.299386 1740.419849 25940.066663 22774.021897 20493.375672 18558.281515 16780.624862 14149.350390 11880.463236 8994.630745 6221.246924 3495.008529 1695.761067 25940.638843 22774.567681 20493.716956 18558.090803 16779.422401 14146.378123 11874.808673 8984.700471 6206.968704 3481.122364 1680.249022 25940.864011 22774.763973 20493.787697 18557.859256 16778.648312 14144.676781 11871.825625 8980.119794 6200.790575 3475.078391 1674.273760 25940.946558 22774.824911 20493.777939 18557.689063 16778.209021 14143.799928 11870.353089 8978.006408 6198.204708 3472.688357 1672.011835 25940.974253 22774.839088 20493.755333 18557.586782 16777.979995 14143.379948 11869.685469 8977.081874 6197.119200 3471.725255 1671.148485 25940.982451 22774.839748 20493.738079 18557.532475 16777.868892 14143.187966 11869.396423 8976.699763 6196.685213 3471.347395 1670.821904 25940.984390 22774.837835 20493.727905 18557.505994 16777.818381 14143.104504 11869.275350 8976.545670 6196.516069 3471.203017 1670.700182 25940.984607 22774.836221 20493.722662 18557.493876 16777.796541 14143.069874 11869.226653 8976.485321 6196.451372 3471.148601 1670.655244 25940.984482 22774.835276 20493.720197 18557.488626 16777.787485 14143.056010 11869.207710 8976.462401 6196.427251 3471.128516 1670.638903 25940.984359 22774.834803 20493.719112 18557.486457 16777.783875 14143.050639 11869.200542 8976.453903 6196.418447 3471.121245 1670.633050 25940.984288 22774.834589 20493.718660 18557.485596 16777.782485 14143.048622 11869.197903 8976.450824 6196.415296 3471.118657 1670.630983 25940.984253 22774.834498 20493.718481 18557.485267 16777.781967 14143.047885 11869.196955 8976.449732 6196.414189 3471.117751 1670.630264 25940.984239 22774.834462 20493.718412 18557.485145 16777.781779 14143.047622 11869.196622 8976.449353 6196.413808 3471.117440 1670.630018 25940.984233 22774.834448 20493.718387 18557.485101 16777.781712 14143.047531 11869.196507 8976.449224 6196.413679 3471.117334 1670.629934 25940.984230 22774.834443 20493.718378 18557.485085 16777.781690 14143.047500 11869.196469 8976.449181 6196.413635 3471.117299 1670.629906 25940.984230 22774.834441 20493.718375 18557.485080 16777.781682 14143.047490 11869.196456 8976.449166 6196.413621 3471.117288 1670.629897 25940.984229 22774.834441 20493.718374 18557.485078 16777.781679 14143.047486 11869.196452 8976.449162 6196.413617 3471.117284 1670.629894 25940.984229 22774.834441 20493.718373 18557.485078 16777.781679 14143.047485 11869.196451 8976.449160 6196.413615 3471.117283 1670.629893 25940.984229 22774.834441 20493.718373 18557.485078 16777.781678 14143.047485 11869.196450 8976.449160 6196.413615 3471.117282 1670.629893 25940.984229 22774.834441 20493.718373 18557.485078 16777.781678 14143.047485 11869.196450 8976.449160 6196.413615 3471.117282 1670.629893 25940.984229 22774.834441 20493.718373 18557.485078 16777.781678 14143.047485 11869.196450 8976.449160 6196.413615 3471.117282 1670.629893 25940.984229 22774.834441 20493.718373 18557.485078 16777.781678 14143.047485 11869.196450 8976.449160 6196.413615 3471.117282 1670.629893 25940.984229 22774.834441 20493.718373 18557.485078 16777.781678 14143.047485 11869.196450 8976.449160 6196.413615 3471.117282 1670.629893 25940.984229 22774.834441 20493.718373 18557.485078 16777.781678 14143.047485 11869.196450 8976.449160 6196.413615 3471.117282 1670.629893 25940.984229 22774.834441 20493.718373 18557.485078 16777.781678 14143.047485 11869.196450 8976.449160 6196.413615 3471.117282 1670.629893 25940.984229 22774.834441 20493.718373 18557.485078 16777.781678 14143.047485 11869.196450 8976.449160 6196.413615 3471.117282 1670.629893 25940.984229 22774.834441 20493.718373 18557.485078 16777.781678 14143.047485 11869.196450 8976.449160 6196.413615 3471.117282 1670.629893 25940.984229 22774.834441 20493.718373 18557.485078 16777.781678 14143.047485 11869.196450 8976.449160 6196.413615 3471.117282 1670.629893 25940.984229 22774.834441 20493.718373 18557.485078 16777.781678 14143.047485 11869.196450 8976.449160 6196.413615 3471.117282 1670.629893 25940.984229 22774.834441 20493.718373 18557.485078 16777.781678 14143.047485 11869.196450 8976.449160 6196.413615 3471.117282 1670.629893 25940.984229 22774.834441 20493.718373 18557.485078 16777.781678 14143.047485 11869.196450 8976.449160 6196.413615 3471.117282 1670.629893 25940.984229 22774.834441 20493.718373 18557.485078 16777.781678 14143.047485 11869.196450 8976.449160 6196.413615 3471.117282 1670.629893 25940.984229 22774.834441 20493.718373 18557.485078 16777.781678 14143.047485 11869.196450 8976.449160 6196.413615 3471.117282 1670.629893 25940.984229 22774.834441 20493.718373 18557.485078 16777.781678 14143.047485 11869.196450 8976.449160 6196.413615 3471.117282 1670.629893 25940.984229 22774.834441 20493.718373 18557.485078 16777.781678 14143.047485 11869.196450 8976.449160 6196.413615 3471.117282 1670.629893 25940.984229 22774.834441 20493.718373 18557.485078 16777.781678 14143.047485 11869.196450 8976.449160 6196.413615 3471.117282 1670.629893 25940.984229 22774.834441 20493.718373 18557.485078 16777.781678 14143.047485 11869.196450 8976.449160 6196.413615 3471.117282 1670.629893 25940.984229 22774.834441 20493.718373 18557.485078 16777.781678 14143.047485 11869.196450 8976.449160 6196.413615 3471.117282 1670.629893 25940.984229 22774.834441 20493.718373 18557.485078 16777.781678 14143.047485 11869.196450 8976.449160 6196.413615 3471.117282 1670.629893 25940.984229 22774.834441 20493.718373 18557.485078 16777.781678 14143.047485 11869.196450 8976.449160 6196.413615 3471.117282 1670.629893 25940.984229 22774.834441 20493.718373 18557.485078 16777.781678 14143.047485 11869.196450 8976.449160 6196.413615 3471.117282 1670.629893 25940.984229 22774.834441 20493.718373 18557.485078 16777.781678 14143.047485 11869.196450 8976.449160 6196.413615 3471.117282 1670.629893 25940.984229 22774.834441 20493.718373 18557.485078 16777.781678 14143.047485 11869.196450 8976.449160 6196.413615 3471.117282 1670.629893 25940.984229 22774.834441 20493.718373 18557.485078 16777.781678 14143.047485 11869.196450 8976.449160 6196.413615 3471.117282 1670.629893 25940.984229 22774.834441 20493.718373 18557.485078 16777.781678 14143.047485 11869.196450 8976.449160 6196.413615 3471.117282 1670.629893 25940.984229 22774.834441 20493.718373 18557.485078 16777.781678 14143.047485 11869.196450 8976.449160 6196.413615 3471.117282 1670.629893 25940.984229 22774.834441 20493.718373 18557.485078 16777.781678 14143.047485 11869.196450 8976.449160 6196.413615 3471.117282 1670.629893 25940.984229 22774.834441 20493.718373 18557.485078 16777.781678 14143.047485 11869.196450 8976.449160 6196.413615 3471.117282 1670.629893 25940.984229 22774.834441 20493.718373 18557.485078 16777.781678 14143.047485 11869.196450 8976.449160 6196.413615 3471.117282 1670.629893 25940.984229 22774.834441 20493.718373 18557.485078 16777.781678 14143.047485 11869.196450 8976.449160 6196.413615 3471.117282 1670.629893 25940.984229 22774.834440 20493.718373 18557.485078 16777.781678 14143.047485 11869.196450 8976.449160 6196.413614 3471.117282 1670.629893 25940.984229 22774.834440 20493.718373 18557.485077 16777.781678 14143.047485 11869.196450 8976.449160 6196.413614 3471.117282 1670.629893 25940.984229 22774.834440 20493.718372 18557.485077 16777.781677 14143.047484 11869.196450 8976.449159 6196.413614 3471.117282 1670.629893 25940.984227 22774.834438 20493.718370 18557.485075 16777.781676 14143.047483 11869.196448 8976.449158 6196.413614 3471.117282 1670.629893 25940.984222 22774.834431 20493.718363 18557.485067 16777.781669 14143.047477 11869.196444 8976.449155 6196.413612 3471.117280 1670.629892 25940.984203 22774.834406 20493.718336 18557.485041 16777.781645 14143.047458 11869.196429 8976.449144 6196.413604 3471.117276 1670.629890 25940.984137 22774.834321 20493.718244 18557.484952 16777.781565 14143.047392 11869.196378 8976.449108 6196.413580 3471.117262 1670.629882 25940.983917 22774.834040 20493.717943 18557.484660 16777.781302 14143.047176 11869.196211 8976.448988 6196.413500 3471.117214 1670.629857 25940.983204 22774.833139 20493.716980 18557.483728 16777.780466 14143.046491 11869.195681 8976.448609 6196.413247 3471.117066 1670.629777 25940.980967 22774.830344 20493.714006 18557.480858 16777.777896 14143.044389 11869.194058 8976.447447 6196.412475 3471.116612 1670.629535 25940.974184 22774.821969 20493.705138 18557.472322 16777.770271 14143.038161 11869.189254 8976.444014 6196.410194 3471.115278 1670.628822 25940.954327 22774.797772 20493.679643 18557.447851 16777.748458 14143.020368 11869.175545 8976.434226 6196.403702 3471.111494 1670.626802 25940.898304 22774.730457 20493.609088 18557.380321 16777.688397 14142.971436 11869.137874 8976.407354 6196.385901 3471.101156 1670.621286 25940.746221 22774.550468 20493.421479 18557.201277 16777.529494 14142.842115 11869.038377 8976.336429 6196.338973 3471.074008 1670.606813 25940.349734 22774.088856 20492.943125 18556.746090 16777.126328 14142.514266 11868.786224 8976.156766 6196.220221 3471.005587 1670.570379 25939.359129 22772.955876 20491.776230 18555.638901 16776.147502 14141.718651 11868.174272 8975.720806 6195.932297 3470.840405 1670.482555 25936.992814 22770.301346 20489.059708 18553.068560 16773.878808 14139.874546 11866.755061 8974.709458 6195.264724 3470.459145 1670.280258 25931.603093 22764.381630 20483.041849 18547.389267 16768.872033 14135.801951 11863.616909 8972.471371 6193.787716 3469.619654 1669.836002 25919.934781 22751.859554 20470.398463 18535.484100 16758.382975 14127.256289 11857.017982 8967.758226 6190.676721 3467.860554 1668.908294 25896.007627 22726.825656 20445.294506 18511.889179 16737.592109 14110.271149 11843.858529 8958.336077 6184.451519 3464.359184 1667.070001 25849.721672 22679.728484 20398.377723 18467.841298 16698.730884 14078.386158 11819.034387 8940.495957 6172.643125 3457.754343 1663.621828 25765.713625 22596.842979 20316.309064 18390.773420 16630.519391 14022.043612 11774.872043 8908.608173 6151.487215 3445.994448 1657.524404 25623.412924 22461.078399 20182.581275 18265.029043 16518.653252 13928.765813 11701.060444 8854.930022 6115.708983 3426.209420 1647.352042 25399.547152 22254.798984 19980.033462 18074.117278 16347.688865 13784.457240 11585.276094 8769.723801 6058.442263 3394.669100 1631.284387 25076.902697 21968.906817 19698.950900 17806.853286 16104.949584 13575.792925 11415.088695 8643.088328 5972.784304 3347.871850 1607.630549 24654.622739 21609.967877 19345.159878 17466.626552 15788.244010 13295.680844 11182.201047 8467.687213 5852.184519 3281.605486 1574.340858 24141.870995 21178.623410 18917.768040 17059.901249 15407.707658 12948.907126 10881.451162 8231.654383 5683.823067 3187.762730 1526.710667 23631.181712 20766.305421 18483.128581 16617.928516 14982.098502 12549.532506 10515.205537 7936.963788 5478.254471 3079.794829 1469.177794 23217.106798 20460.088928 18172.740286 16235.443508 14525.637694 12096.728829 10106.943184 7614.349261 5232.744236 2931.493254 1389.897843 22549.788661 19670.341008 17530.116975 15836.642922 14090.534357 11617.076366 9654.024007 7182.538510 4821.545212 2695.058822 1248.992447 23367.372773 20577.475305 17675.286035 15813.967483 14014.428566 11297.883315 9194.282652 6752.850204 4621.200096 2749.966947 1177.935676 21023.472576 19156.538919 16931.588611 14501.829137 12923.603789 10364.256863 8325.103786 6134.759683 4047.140634 1791.299448 666.810666 24349.799369 19971.768992 19300.688341 16777.792212 14611.225211 11598.179279 8904.020973 6261.839206 3810.492082 2086.252502 1748.607157 1179.953410 732.816753 475.154747 326.358510 238.459004 179.582110 132.176026 89.569388 45.691546 8.757016 -38.906674 -330.027560 -170.285032 644.264550 1261.811051 784.316759 500.281798 333.128817 235.613040 174.322231 130.330479 96.464756 62.203783 27.770111 71.744677 -12.862619 -476.623271 -528.537727 1436.158421 887.397038 559.300781 365.647840 253.255247 184.149272 136.034280 99.633990 70.019153 24.980619 -18.034706 23.664214 260.814738 -46.171154 1504.360949 903.663004 542.108009 328.358342 205.497254 132.459766 85.059497 50.497955 26.968502 16.319395 -9.100395 -117.906372 -77.428797 -78.868843 1590.286577 946.022960 557.058128 327.361944 196.589183 120.677927 73.979027 42.091064 16.262478 1.451894 16.106024 9.291107 24.156009 -5.649762 1641.924634 962.820352 552.467305 310.752433 174.445279 97.084127 51.277874 22.867473 3.216296 -14.672256 -23.675270 -28.697372 -8.072048 -13.903554 1685.035030 979.341644 553.002022 302.534559 162.517746 84.785935 40.333527 13.596030 -2.200613 -11.086987 -15.088734 -19.041226 -7.441084 -7.665477 1715.937684 990.689728 552.863869 296.378233 154.091294 76.578221 33.957266 9.355083 -5.498971 -13.630193 -15.852951 -15.637507 -6.984502 -6.404602 1736.436889 997.537330 552.025339 291.833366 148.500493 71.609847 30.673888 8.432948 -4.151317 -11.145514 -13.819264 -13.609014 -7.603942 -5.921281 1746.272725 998.616492 548.921405 287.341186 144.262742 68.561503 29.266945 8.817423 -1.993512 -7.538795 -9.672608 -9.514262 -5.738126 -4.364696 1740.964473 989.090658 539.138316 279.504368 138.887015 65.476291 28.223876 9.514429 0.065300 -4.569664 -6.372671 -6.347773 -4.078947 -3.083878 1718.531296 966.651555 519.762917 265.269273 130.146354 60.904494 26.497243 9.750210 1.637355 -2.200350 -3.739235 -3.888354 -2.642097 -1.995418 1633.110660 895.708314 474.862199 237.760886 114.435849 52.995247 23.154134 8.996984 2.362250 -0.675574 -1.909132 -2.140471 -1.527719 -1.167576 1407.411771 702.120535 349.042358 171.946809 81.747695 37.622059 16.520758 6.649192 2.107374 0.067731 -0.767246 -0.977281 -0.720024 -0.587740 1524.687541 660.280635 301.224328 138.955297 63.560392 28.600868 12.485289 5.156723 1.875300 0.437976 -0.153398 -0.343755 -0.292174 -0.346951
</DataArray>
<DataArray type="Float64" Name="Velocity" NumberOfComponents="3" format="ascii">