<VTKFile type="PolyData">
<PolyData>
<Piece NumberOfPoints="1945" NumberOfVerts="1945" NumberOfLines="0" NumberOfStrips="0" NumberOfPolys="0">
<PointData>
<DataArray type="Float64" Name="Pressure" format="ascii">
 21879.315490 22378.335642 21097.894573 21994.117508 19356.164051 19922.149393 20042.907347 21060.675594 20180.849110 20785.569990 21654.185998 20410.323207 22321.000583 21241.059257 22694.662079 20787.260288 21744.411154 19453.945938 23006.277016 21933.010960 19641.995306 18878.188098 20036.811944 20658.138818 18376.023883 18702.416923 20985.698890 21024.796230 17704.130301 18737.342877 20167.451000 19878.725507 19867.190146 17740.279235 21834.570934 21059.980627 21043.179895 20233.889751 22618.168953 22278.990966 19179.488218 18796.638629 22505.660046 21164.704130 20584.021430 19534.019229 21153.782551 21000.044848 18126.383462 18974.981872 21026.023657 20542.411634 24666.737936 22029.705670 26855.472922 23480.588685 22580.064624 20282.741518 23855.610757 22557.675081 23021.154642 22318.843073 20204.530963 20927.009941 23040.740142 23524.051874 20842.635948 22730.138032 18423.365704 18810.617887 24891.784028 24517.632930 22272.295834 22502.319720 22856.629334 24850.514302 22806.998464 24986.657919 20552.143499 21676.900800 26977.346771 25108.563776 27097.408412 25881.272412 21977.821103 24124.210281 21696.366441 24165.102891 22581.005806 23591.391765 24121.170496 24480.881074 24484.598762 23941.944434 23240.834649 24066.402371 23424.292890 24110.289613 25220.141527 24886.714346 25162.619376 24620.619365 27423.898076 26074.919211 26770.655974 26823.174418 25325.292894 25865.380471 25963.681727 28336.448576 22401.425185 22509.542567 24464.721356 23843.944309 21103.210485 21330.549062 23740.574449 26060.523445 19615.464237 21466.584193 22672.895464 23749.588307 21160.867265 21927.728186 24402.904952 26000.739615 21087.905323 24349.396765 19800.503654 20438.811633 25634.118330 27875.892444 19593.983734 21005.848173 24824.244334 25635.537671 20303.800624 20483.548712 24775.543442 24527.931048 27298.536416 26094.202079 20670.606480 21234.703320 22858.982227 23743.027523 23286.220492 20201.468528 24526.257350 24411.638990 19983.890703 20099.723985 21498.941599 22197.422727 19734.497680 20189.189722 22358.577209 21558.658290 20802.925114 20374.655907 19811.877039 18574.060504 21727.263092 19770.291412 21372.775374 19305.430333 21857.105666 20043.103750 21161.755364 18222.113265 21855.098675 19655.289715 22562.696463 20352.929992 21206.354614 20017.697772 21561.448519 20718.504820 19851.418333 19079.336818 19203.941658 18593.130288 18984.541101 18004.820003 22201.186574 19515.864265 24374.241386 20607.393613 22924.395516 21799.282052 21861.399927 22005.296296 22671.725219 21103.355766 21763.555652 19386.085762 22894.951460 20570.643495 20735.101537 18856.776678 21241.505626 19294.243912 22192.338688 20011.471825 20180.062950 19648.918448 21538.173288 21903.028171 23050.971230 22666.491866 20946.590526 19898.200883 18618.495924 16175.251721 14387.751216 12914.956929 11591.425386 10440.328971 8105.885280 4782.789985 4534.936843 5036.865736 3595.330734 1143.150562 -2492.117941 -5170.708959 -5611.197531 -5931.838007 -6194.846373 -6344.261471 -6403.836601 -6392.287385 -6321.560326 -6201.055807 -6039.120438 -5843.428195 -5621.033248 -5378.340065 -5121.062193 -4854.196198 -4582.022260 -4308.133842 -4035.492336 -3766.498915 -3503.074606 -3246.740395 -2998.691027 -2759.858461 -2530.963135 -2312.553013 -2105.031666 -1908.677452 -1723.656118 -1550.029152 -1387.759938 -1236.719562 -1096.695070 -967.410968 -848.627171 -740.682209 -648.046417 20970.122448 20174.411784 18550.710458 15208.062911 14213.554001 12898.594916 10893.073073 10612.863187 8782.795681 3222.338147 4419.869650 8122.007826 4688.763035 2138.348512 -1909.098006 -5084.962155 -5570.607570 -5845.760307 -6159.283275 -6322.895596 -6388.402913 -6379.928292 -6311.314048 -6192.576500 -6032.238811 -5838.012708 -5616.951234 -5375.449820 -5119.215093 -4853.242294 -4581.816624 -4308.542131 -4036.394757 -3767.792293 -3504.672699 -3248.572813 -3000.701233 -2762.001310 -2533.202343 -2314.858822 -2107.378910 -1911.044068 -1726.022132 -1552.376057 -1390.070279 -1238.975997 -1098.874825 -969.451306 -850.211930 -739.952660 -633.393362 19972.081167 17718.294380 18320.282167 15670.182066 14833.126431 13858.449029 10243.194967 10073.525996 9596.469911 10018.106007 9041.000988 8854.018635 454.235493 -5036.579917 -1170.707175 7.058749 376.970975 445.502811 327.982549 115.709834 -129.719067 -373.382710 -598.964566 -800.458990 -976.212740 -1125.637619 -1247.941225 -1342.030006 -1406.905849 -1442.134296 -1448.181488 -1426.560600 -1379.804043 -1311.307291 -1225.094441 -1125.549070 -1017.144219 -904.196075 -790.657786 -679.963130 -574.923975 -477.680605 -389.700080 -311.814840 -244.291980 -186.922907 -139.123285 -100.033299 -68.603481 -43.607524 -23.322823 20434.746903 18943.043143 18930.439943 16781.822127 15505.277232 14141.617448 11620.851179 10066.441479 8603.850344 7151.795079 5564.609936 3924.961044 1507.728741 -251.790455 -368.420418 33.502259 337.412177 408.676305 305.767996 105.960819 -131.544654 -371.068985 -594.863886 -795.716541 -971.223307 -1120.449580 -1242.519855 -1336.387274 -1401.137507 -1436.406348 -1442.696980 -1421.524907 -1375.397167 -1307.665684 -1222.301909 -1123.635087 -1016.087782 -903.933310 -791.091785 -680.974731 -576.382423 -479.453282 -391.660700 -313.849760 -246.304509 -188.835752 -140.879817 -101.600954 -69.998473 -45.065087 -26.320483 -582.601382 -552.582059 -559.320605 -530.934311 -499.926139 -484.239996 -428.088328 -426.243543 -369.406254 -369.666823 -318.279147 -318.842831 -273.381839 -273.946757 -234.027226 -234.546252 -199.657952 -200.125752 -169.761479 -170.179864 -143.858840 -144.230956 -121.504352 -121.833650 -102.286373 -102.576371 -85.827567 -86.081754 -71.784532 -72.006311 -59.846881 -60.039520 -49.735882 -49.902478 -41.202768 -41.346226 -34.026822 -34.149840 -28.013319 -28.118377 -22.991391 -23.080750 -18.811887 -18.887593 -15.345268 -15.409157 -12.479574 -12.533285 -10.118498 -10.163483 -8.179579 -8.217115 -6.592523 -6.623729 -5.297672 -5.323523 -4.244612 -4.265950 -3.390914 -3.408465 -2.701019 -2.715405 -2.145244 -2.156995 -1.698907 -1.708473 -1.341566 -1.349327 -1.056354 -1.062630 -0.829406 -0.834464 -0.649367 -0.653430 -0.506972 -0.510225 -0.394686 -0.397283 -0.306408 -0.308474 -0.237210 -0.238848 -0.183129 -0.184423 -0.140985 -0.142005 -0.108239 -0.109041 -0.082871 -0.083498 -0.063274 -0.063764 -0.048179 -0.048560 -0.036585 -0.036881 -0.027706 -0.027935 -0.020925 -0.021101 -0.015761 -0.015897 -0.011839 -0.011944 -0.008870 -0.008949 -0.006627 -0.006688 -0.004939 -0.004985 -0.003671 -0.003706 -0.002721 -0.002748 -0.002012 -0.002032 -0.001484 -0.001499 -0.001091 -0.001102 -0.000800 -0.000808 -0.000584 -0.000590 -0.000423 -0.000428 -0.000302 -0.000305 -0.000209 -0.000211 -0.000132 -0.000133 -0.000062 -0.000062 0.000013 0.000014 0.000105 0.000108 0.000235 0.000241 0.000431 0.000440 0.000738 0.000753 0.001225 0.001249 0.002000 0.002038 0.003233 0.003293 0.005185 0.005279 0.008257 0.008403 0.013057 0.013280 0.020491 0.020829 0.031894 0.032399 0.049198 0.049943 0.075150 0.076234 0.113583 0.115133 0.169726 0.171903 0.250546 0.253546 0.365078 0.369130 0.524684 0.530030 0.743125 0.749999 1.036315 1.044901 1.421557 1.431914 1.915986 1.927960 2.533947 2.547035 3.282951 3.296142 4.157879 4.169454 5.133140 5.140454 6.152594 6.151849 7.117225 7.103274 7.870806 7.837099 8.183941 8.123180 7.736173 7.644959 6.088711 5.997328 2.600954 2.749455 -4.154406 -2.026848 -11.332819 -6.895049 -14.677576 -9.749158 20227.815775 21176.202309 16416.849353 20858.409572 18646.738489 13924.291276 17976.372450 18354.543502 18114.156711 15250.532283 16768.592437 19649.935721 18427.354474 15308.331433 17975.540044 14410.259088 10876.928348 14495.642630 16116.085570 13721.110697 14731.370820 15946.443259 19338.264289 16677.389959 20496.955070 16751.108885 17506.090664 18205.513565 11423.498448 16150.186676 13473.134793 4780.833604 16605.201093 18158.198865 19765.044059 18142.497502 10465.171649 16322.373461 17529.066720 14338.188128 8806.223003 14358.074805 7867.045275 16808.429420 13235.799464 7098.897420 18897.594109 19942.137817 18901.505114 16426.833824 16174.719369 15595.968754 8268.671308 12198.559505 14394.701942 14939.132936 16291.751232 18399.779614 20086.593085 18695.980604 15861.954183 18710.081913 15971.697940 14006.728652 11671.435966 17814.945866 17705.159116 15300.027940 20006.847494 16046.294480 17385.708564 16551.762820 16108.576465 15478.096857 14431.050565 14062.184227 7852.909608 17489.813167 17629.217439 17884.637354 16149.126301 17949.035309 14632.383943 12181.579732 16128.192861 16046.060585 10609.219108 10430.084037 20884.971703 19842.624002 16029.521961 17811.191162 16596.997713 13615.906746 12134.444455 16169.290601 14843.402383 11032.764524 13422.569261 20129.278630 17709.393537 13754.230537 16552.389045 11584.789346 19076.560466 12554.839368 14348.585307 16186.214897 4585.001759 11347.082658 19990.567518 16553.146461 19049.456014 5267.980405 20456.888860 11824.778852 16561.528468 8384.295329 9222.398453 7254.013977 5681.048470 19248.648969 19984.982938 10000.236094 18610.368313 6192.005844 14946.153113 9918.317751 12647.100309 13642.454846 15027.095127 11222.868284 21033.155770 16643.635135 17338.056617 16393.991564 14051.886951 15677.066747 14344.737030 9081.352358 20010.014787 19818.492676 12161.864211 19345.136082 18159.375581 19250.463532 19234.067845 17988.835078 15921.924471 16127.969144 13579.608209 15620.817482 9780.049847 10027.215951 22563.759017 18072.841183 20423.211003 18779.577438 14162.882936 20016.073494 11604.470736 12878.232804 6608.615513 9354.514108 6770.791883 21727.425796 19817.773179 20509.139243 16356.009563 14370.059688 12180.106215 13641.603798 7106.050282 3330.907485 4308.188041 1514.813505 20248.527105 21782.715466 18160.472439 19961.316473 17299.245617 15914.879485 11765.916311 13580.192427 7109.063655 2226.355540 -486.287717 22470.299768 17572.431534 19242.754972 13528.089473 11394.004101 6846.913637 4675.882104 4480.501547 5049.987000 3283.100209 2159.345884 22387.314717 20576.861148 19057.800425 19623.493600 14529.077953 6429.605425 12216.316644 7329.412721 8490.852601 4173.921514 3304.375970 22040.628919 23713.287706 21661.043042 17345.077947 10016.149755 7648.065981 8610.137361 5158.965881 4383.203068 4653.124482 1173.134886 21827.026594 19509.164500 22006.948698 17720.958099 9688.945313 4395.067133 4864.589204 3680.414035 5198.450447 3761.377897 6201.143374 23388.483230 22492.197925 16968.536413 14091.093999 14683.708099 5138.698188 6697.800451 3848.719865 4150.918838 3944.177413 4855.212222 22986.804754 23573.887974 20696.041919 11803.520791 13170.607985 11910.103063 2911.801675 6195.489601 3511.260640 5469.184656 1954.901603 22992.652588 21430.288689 16937.942342 13893.241207 7304.666367 9322.204434 13341.928331 11929.741453 10237.310882 5052.784502 1143.921046 22828.590787 19162.637719 17763.318685 14660.531641 12002.393129 14470.649411 7970.136698 4368.817833 11490.305591 4586.378081 2993.900504 24857.402601 20508.632113 17748.968410 20516.585719 18105.723112 13645.019199 7660.709834 7770.953520 8656.453106 7820.584041 4624.241859 23739.120544 21704.471367 19044.320070 14283.907331 19197.087368 5441.820706 11934.354039 5298.502157 5378.960311 3932.234848 2820.287376 21197.381093 14697.717316 13801.472407 16900.658079 13286.761992 14996.877537 9906.788381 13102.890727 3966.709472 6629.088479 8747.269436 20663.995578 20852.360276 16298.858246 18778.683725 17840.274813 11639.190713 5635.512896 9534.959246 6077.893412 7002.578455 3807.761383 22646.554448 22906.294340 18176.343911 13650.861503 13052.814086 7372.637728 10036.720022 7389.966724 8456.701208 8424.039143 5085.924050 20426.790677 17227.498580 23758.735284 18121.516963 17138.401602 6213.980666 9490.256059 11250.677784 7120.817614 7247.137355 5174.686598 24115.599524 22769.895376 16846.254935 16590.481207 18452.766998 13988.269103 13721.678548 11220.314770 11004.829251 9939.747440 4052.603323 22685.165910 11076.128488 19109.093967 16708.518314 18581.776652 13269.097569 7321.393329 13120.620082 3910.599137 7309.572875 5479.084264 23623.854090 23052.019767 22619.407315 18598.984083 15992.670889 11056.146773 12288.986071 9849.555141 6337.649587 5179.092117 4264.158604 23417.857215 20153.622276 16135.707830 18458.050045 18286.228904 14804.046903 15332.531716 7862.093601 6936.508162 6318.652520 3691.716763 24251.402289 24974.897339 19976.105613 19025.653430 17965.336585 16944.955060 13245.849530 15108.963082 4438.002746 6251.983998 4235.836453 24516.459526 22908.291622 16064.761954 18419.595752 21171.974712 13754.821178 14621.810556 12842.286911 10664.967642 5956.112774 -2478.216179 19132.208655 23501.693647 23726.973000 18798.799362 17083.463244 11617.477493 14966.715780 11832.927995 18190.552991 5292.544785 6400.968578 23757.562317 24325.215393 21308.083468 16541.389507 18017.716776 11588.164115 9148.221690 7121.158173 7166.676610 4690.585740 2874.447347 23538.156975 18546.587636 22992.345319 17696.648649 7581.118265 11641.824749 7216.750834 7165.636143 4418.098398 9349.181388 6865.410608 24700.443810 23460.798701 24103.849294 19683.743402 18236.893699 13631.303918 9456.981622 8071.037196 10652.169241 4951.858926 3502.366492 20921.252647 21294.069968 22086.346814 14467.218838 13795.919348 13197.032154 16205.779208 8258.465458 5801.647956 4313.168604 5040.212501 24227.340631 24492.847439 19737.316376 17760.352005 16934.115134 11365.279499 12096.829812 10872.272702 9102.202071 4867.892294 7294.019080 20850.498510 21206.875078 19497.082355 22706.730608 15076.447388 13090.873086 9396.190686 10271.282452 7322.362168 5697.454799 4936.112644 24863.947910 24071.721080 21293.458878 12673.391113 16306.353737 15930.459540 10071.709681 15466.019285 7150.858103 8044.315409 2154.317446 25725.291665 21710.685373 24871.377606 7401.150511 9454.977208 9397.237327 10134.637817 8266.186380 5011.739225 10335.977996 6301.203741 24007.639487 18718.218215 17725.129562 20679.283464 11133.092745 15480.770853 14538.951717 5546.495011 6253.298462 12839.670782 6370.589359 26895.995278 24552.032528 19158.454987 20241.834132 15179.021921 14995.463094 7941.564316 17523.834020 10724.647161 2564.416934 2783.293272 24576.027096 24521.305565 20830.286615 16917.200538 13138.712179 16844.073905 17195.101846 7024.493592 13072.441031 6064.574734 4614.936955 22177.574997 21005.292432 22451.542758 16335.816927 19586.343696 15532.869609 18203.795027 10944.347528 13254.955413 6428.432366 3826.183411 23773.628800 19263.818861 21776.416669 20869.850413 14588.268560 16334.234147 14418.444186 15321.781016 12296.013996 8908.889217 3324.365273 26288.474843 25372.199710 20219.547234 17981.367290 19045.913868 16380.424744 16018.472934 13509.726032 9533.493153 5182.074175 4146.370343 27040.487216 25954.131685 22640.588502 21003.881968 19984.980128 16745.590620 14080.639474 10756.647021 13458.498860 10352.966047 4533.734413 25352.361624 25108.701825 20427.271218 22675.171827 20060.258558 18632.764625 13057.856827 12347.148880 5910.922783 7016.219671 4008.380573 24454.842174 24712.579450 22769.796063 20797.471827 15430.910855 10646.735754 9350.978680 12483.875731 3503.431545 5718.968485 11801.706682 24888.836811 24904.445668 23604.574183 22171.570242 16121.366292 15580.101121 11065.256020 7113.298933 6584.591271 6275.814823 7648.515444 23473.497296 23698.960401 23027.809157 16922.700489 14798.884438 13771.701994 15022.695786 9678.107711 7808.075344 6653.468307 10796.642422 23592.506463 24501.565900 19873.952628 13745.957752 19867.909679 13620.957297 15002.980628 11517.885614 11868.965782 6748.183739 4862.244796 23933.443629 21741.581597 21493.743158 19839.441546 18247.821014 16772.609313 14652.539979 18266.526079 8543.296741 5457.215377 3520.227313 25748.708477 23101.888524 23349.924300 22175.301381 18407.011267 19079.286920 14828.899511 11179.372076 7178.240090 2966.730571 7402.972906 25109.819422 20683.513886 20860.188587 21580.485479 17490.520042 16240.067134 9791.554086 6950.850280 3976.240100 6231.140652 1235.369563 23439.551669 22113.871434 22336.573024 18458.340707 20950.128877 16277.544102 9325.127283 7690.488757 9025.016925 2622.448436 3826.797707 26474.894862 25817.429315 22980.345771 20334.701887 18128.171209 15536.434040 19227.657077 7364.934192 4640.735573 5424.372169 3834.044453 23928.250154 23994.256636 21478.663131 18847.567461 21122.208517 19487.720632 11815.328527 10945.308188 6543.466706 4630.005239 2699.795665 25145.292606 22353.394007 25659.301719 22710.832169 14705.689164 21080.137445 14178.304140 11357.474970 6735.532264 6526.272541 3278.544886 25523.197705 24457.352931 21338.575922 20228.852489 16657.904559 14845.939901 15055.144661 10712.825254 8117.237004 2402.239532 3692.823423 24744.851595 24634.945806 23215.785858 23962.663272 13741.505769 16447.981183 12572.784888 6882.275168 4378.987784 5852.832071 2632.582528 24693.218299 23385.520347 23256.726316 20778.893649 14170.665224 9792.742587 8563.955872 10387.067528 6597.145437 5751.990048 1666.431307 22691.652843 23145.245700 19826.568242 17811.482483 18338.368406 11439.708641 13821.636480 8430.806750 12074.715101 7427.688099 1970.441745 23041.535486 22124.253798 21539.900254 21381.273993 17446.677585 10575.867385 12360.311259 8462.940601 6893.020844 6392.909613 9665.431632 21596.006025 22214.693890 21161.727605 20622.915817 15811.510383 15943.956471 7072.239897 13212.075829 8418.225755 7319.833182 4143.669721 23024.845677 19572.759520 20602.905088 20891.697896 18383.744713 15842.624303 13785.321556 10140.046595 9265.099676 9532.162159 9608.593105 22135.480693 24358.205190 21579.676829 18512.206366 14663.980896 17884.706059 14093.545685 8071.910148 9923.058298 4310.218292 -2835.460391 21482.019338 21369.128872 21340.975584 19328.335086 17880.085050 19497.567699 11010.223452 9612.705529 4692.360045 2262.295997 4850.016647 22062.405228 21227.414740 20166.265508 19481.189464 16600.487640 14751.842641 13105.286851 10565.651890 6841.319960 7817.147165 -405.429812 20095.877142 24198.792065 17040.725108 19466.511157 16733.654962 10301.497620 16371.869808 6337.857721 6220.518955 11607.151875 112.427212 21026.286168 21643.540743 21915.914082 19907.100360 17194.522697 14787.571867 13960.229303 8658.927155 8977.134398 5959.584788 4478.594963 20238.585030 21522.378620 18918.384765 19421.696095 15821.875311 14608.167634 10771.456625 9962.983139 8822.888449 8782.394716 6927.325308 20621.327385 18352.542911 21201.592100 19893.660052 16585.666398 16666.912933 15121.479653 10777.260318 8875.348591 5040.359224 3991.098961 18339.552264 18537.753758 21133.210896 21030.163700 15194.733945 12290.754665 12092.379479 8988.384750 7863.491813 4194.137329 8638.464057 18988.464277 20399.735051 16710.090677 14534.160355 16694.028546 13579.477885 12034.294048 13680.404082 9062.962671 1997.314860 225.151925 17952.927219 17854.396086 17797.114921 15887.147212 17794.839309 14526.474440 12926.058082 11423.328629 11137.085864 7269.469052 5284.750874 16919.901608 17850.312563 15762.235981 18504.910880 16898.774897 14292.734419 11681.325391 9664.717210 8739.324720 7205.567528 870.691010 17171.611819 15978.628397 17062.266847 14068.492245 15070.630411 15045.158644 9376.669009 11064.170261 9123.931691 4908.869157 999.842227 17599.123648 16260.489763 17243.549358 17850.730284 16763.103685 10642.295574 11994.746428 9852.971966 8867.964002 5982.500189 901.230691 18367.245430 17920.432296 12849.854230 16231.190007 13648.991262 14286.186051 11288.149222 9295.265038 3841.293117 2148.060202 5767.617872 16778.857508 16094.869593 15072.685623 16960.693866 13375.000757 13777.124819 11964.872519 6727.664083 4932.071402 6470.528105 5125.909180 19828.867670 18164.733970 15009.896786 15885.143204 11087.979102 13855.962083 8463.848418 8801.491216 6869.030067 8000.932477 908.901719 18742.601589 16053.841449 15938.407687 14992.981122 13725.858379 12730.954272 10406.248210 12813.816721 10655.608627 5346.546483 3829.708362 17082.974682 20089.434704 13337.009716 15654.354692 11088.290432 13403.282136 11452.646856 9957.063878 7014.727602 1912.675165 5204.169423 19578.671838 18036.103700 16372.185598 16192.523125 14847.654994 12001.362013 9157.103273 9059.140877 12311.591177 7260.504713 5872.329673 16557.820256 17806.340297 15953.556878 18165.176052 12035.959139 15180.237045 9164.238636 13954.062504 7783.830551 5510.500514 5970.652396 17614.174798 17639.373739 17229.136319 17898.980050 18479.781709 12742.563624 12214.805447 14781.549863 12565.123761 4973.711491 9555.185073 21707.398268 16756.182981 17567.844115 17634.268463 17252.523235 14393.093751 11252.741431 13762.298984 11028.262175 9091.686048 2340.751710 19420.511733 17574.056724 15704.256180 14181.345034 14709.246769 17206.695083 11371.373802 12079.050620 3245.661489 5042.301049 9296.997032 19863.177758 16616.783057 19621.245629 17872.133809 13140.104124 13335.424401 10920.456049 9577.366324 5373.486865 10901.392029 5398.249749 18415.044210 16164.177003 16819.922984 12366.889043 12755.154063 14384.059396 14220.103121 8389.238689 7840.206088 9641.958346 1461.638800 19268.748718 19613.227064 18812.668499 16655.185757 15564.806610 10109.638311 9656.032866 13523.948656 8833.684719 4019.211714 12473.924471 16873.719165 14595.780390 16179.446454 17712.307442 17461.622321 11621.862898 16578.019630 7380.041429 9582.485078 6334.713319 5499.872288 19321.996707 20904.426914 20310.920167 17996.245788 14961.761716 20033.870685 14905.277380 11364.874475 9856.347858 7207.074676 3894.590631 17932.120624 18357.270721 17010.692178 14214.455488 16011.711343 13439.102439 16598.065977 18217.307131 8199.439741 9795.411733 4153.145563 16739.804895 21386.399083 20667.938741 17135.133795 12510.605987 18939.626382 14668.729022 19038.536196 18741.467605 14024.687680 13278.189023 9568.711906 8256.185661 -4346.379164 16872.433102 12098.875835 16374.202226 16588.854767 8255.242694 20734.799886 11551.539759 11177.010871 16013.711338 6916.399821 10079.207082 9157.321294 4445.022904 12504.626266 8781.991910 11382.217534 12326.496070 7001.228743 8956.540498 8051.997529 10172.010880 9275.963389 12496.412562 7832.000731 4563.252331 6254.435781 4154.693961 4935.179399 11566.207477 7940.033462 10015.858064 10939.475381 10049.644768 9619.213319 11836.353056 11655.662416 5972.934602 13066.765224 11822.842421 7842.733678 8041.388746 2677.410004 12954.239491 15587.235554 8662.522961 7848.077665 13170.109102 9445.098979 11372.718923 9820.118794 9350.922993 6503.509763 7497.527286 6114.459832 4396.632459 4914.974305 8451.640589 15002.077323 9170.777174 16261.965615 11769.642371 12384.111440 14700.794821 8223.732541 8099.571307 8319.340635 6940.205555 6648.226303 8597.944751 2620.864650 17998.962463 4266.287012 8510.897844 9591.870566 4783.944681 12433.730153 10443.007524 11902.424526 6405.119632 5943.751160 5312.051480 5424.828012 4140.896141 4598.818434 8138.986819 7584.947920 9782.422542 13162.787913 8206.912877 11941.432305 4790.137980 3721.550689 4580.664308 6453.917313 8702.211692 5704.933061 4725.715744 6688.414218 11315.800262 12389.755909 7760.884672 3840.417508 8395.252535 4452.637421 7011.002740 4931.476168 3976.787146 8062.053465 5755.316919 5782.893507 3656.352906 2787.083395 4274.515967 7502.795648 10040.953677 6379.519423 9737.013827 2475.338984 7560.669003 6183.394296 10688.575145 2378.577629 3750.123631 3919.040568 3789.276971 2326.904277 5233.957922 8260.037050 16990.074996 13345.624960 3655.495754 6285.500303 3058.603408 10093.762259 6770.145392 8142.853655 10033.316056 6580.674040 3782.074752 3987.804308 9991.034812 3438.991188 8359.531493 17002.983409 4799.412059 10548.638553 1403.254233 10409.463102 4811.525354 6175.100561 7092.682181 12910.109464 1441.623122 4869.170232 4510.072870 -331.014265 588.097320 9734.082644 4948.636427 3288.311985 6291.285904 14079.160375 15760.777680 6491.860395 3930.249167 4123.584168 3087.226899 1811.563541 2168.610954 6547.481212 4701.041569 4178.409111 7547.537815 2761.904030 4556.379430 7841.075296 2724.403519 10821.322536 6227.491883 1614.173620 3799.804180 3814.481807 2597.548473 2927.258203 888.472461 4399.954538 2619.651474 1916.204377 8507.413013 3492.961203 2429.349361 1659.536544 3976.903214 2277.885071 2570.082738 3893.039643
</DataArray>
<DataArray type="Float64" Name="Velocity" NumberOfComponents="3" format="ascii">