<VTKFile type="PolyData">
<PolyData>
<Piece NumberOfPoints="1945" NumberOfVerts="1945" NumberOfLines="0" NumberOfStrips="0" NumberOfPolys="0">
<PointData>
<DataArray type="Float64" Name="Pressure" format="ascii">
 25235.478681 24473.214019 22297.431502 25023.454917 22019.490561 27172.921582 22686.862976 27405.048462 25094.773738 26640.512927 27124.725284 26032.794926 27578.910456 25796.917549 26225.186892 24942.041628 24845.288857 25599.728128 25788.265307 27046.192124 25018.599182 25825.793829 23849.030270 22487.018495 24271.318740 24951.000772 24611.996907 24565.894877 23900.345458 23636.839109 25799.213450 24155.340435 27656.398656 25237.957766 26148.486923 25247.334483 21099.545509 22830.745808 20035.137162 23675.733975 21774.434370 25659.842223 20515.782444 21917.849259 23168.725536 24331.918562 22409.568499 22392.595728 21992.388733 21777.128660 21586.549542 22197.907960 25234.651681 24095.796621 22368.833505 21121.129116 24185.874878 23719.191926 24888.099774 23411.735507 24678.841836 23082.803530 23824.160659 22504.913907 21478.266612 19888.951417 22822.723365 20803.222242 21004.455862 22312.051623 21967.040421 23611.056403 22938.202487 23058.902381 19567.046252 20402.938272 21687.773423 22757.871687 20755.057838 21300.484455 19752.889240 20852.013720 18733.703096 20496.563398 19523.603334 19679.988618 19281.113538 18514.040808 20115.104786 19793.476911 19969.710186 18928.882032 19658.746219 19068.334551 19145.310492 18855.527366 19103.966590 18831.725451 17018.947268 17421.876179 15217.879123 16899.314146 16844.077354 19321.582053 16107.507355 17529.893723 16608.418208 18678.721345 16650.505661 17680.955047 15758.844736 16097.557895 17221.028676 17701.626204 17983.488439 19675.414688 20151.612037 20565.544255 20470.978151 18103.437405 21370.085753 20663.041048 19354.810844 18778.652119 19722.562562 19345.933034 19950.017990 19211.220897 19022.131666 18631.550252 16395.787479 17638.665922 16630.455741 19491.246560 15125.680577 17752.498244 14771.750757 16857.407178 14809.179091 17191.043696 16715.896718 18085.482885 17172.900142 16997.474488 19153.325255 19270.350685 18279.811278 16885.822582 19468.582013 19046.968320 17753.214269 18055.374889 16449.089548 18260.990539 16639.381786 18121.137553 16079.090773 16485.695338 15612.691345 16915.958628 15235.508759 16743.342950 16932.647065 17372.783159 17230.120772 16721.851263 15632.463522 15946.967804 15385.389197 16705.227823 14782.989127 15583.819874 15303.190770 16045.651129 15813.627212 15402.702721 17266.128169 16147.675869 16480.663019 14943.585010 17029.449581 15206.679289 16500.051642 15992.379450 16820.435581 15975.129657 15996.690577 14030.131464 15725.206976 13724.222809 14511.412500 14740.883356 13405.235225 14020.229817 13003.367568 13446.380050 13027.395220 13802.852806 13470.100864 13736.971783 13854.106926 13478.989914 12024.156303 11881.792447 13779.438081 13231.423589 15786.649600 12220.077866 13695.891035 11623.136260 28106.277551 27075.489963 23939.359715 22667.874728 21984.502176 21830.665396 21251.609420 18349.631561 17079.492362 15610.381179 13899.230840 12732.813395 11894.764666 10608.419693 9500.054048 8472.776973 7160.417394 6259.415522 6047.439915 5433.496978 3902.060010 2111.645618 1100.048830 750.297411 412.455733 -75.073716 -630.274274 -1191.463225 -1710.095175 -2153.174478 -2503.735060 -2758.224123 -2922.427042 -3007.454144 -3026.582278 -2993.141210 -2919.309312 -2815.571428 -2690.598117 -2551.358651 -2403.340396 -2250.797470 -2096.987431 -1944.377589 -1794.815812 -1649.667787 -1509.927304 -1376.317138 -1249.461278 -1130.573079 -1025.741609 31960.611722 28800.034775 24348.332211 21771.164817 20804.553833 22235.928829 22652.370313 16951.004630 17320.200514 15699.677709 13678.165692 12536.519636 12061.008905 10335.176986 10016.431787 8724.516835 6897.848032 5309.647367 5960.402861 5022.443182 1933.499137 -665.227549 15.984334 737.268991 386.390731 -91.482066 -635.402558 -1186.718779 -1698.040799 -2136.778419 -2485.706715 -2740.620279 -2906.553443 -2993.961843 -3015.644186 -2984.630768 -2912.943908 -2811.011334 -2687.506245 -2549.431383 -2402.319612 -2250.471703 -2097.187568 -1944.970430 -1795.697218 -1650.755501 -1511.149002 -1377.564504 -1250.329892 -1128.819610 -1007.400871 6986.571334 10202.010541 9361.707109 7595.093591 5811.541181 3268.552156 3599.829942 1520.491866 -1126.633004 462.628190 935.704591 1065.630251 1154.591561 1191.832083 1169.726039 1090.280346 963.239779 802.111324 620.829018 431.710578 244.565620 66.570324 -97.453432 -244.604411 -373.454039 -483.647714 -575.575814 -650.114678 -708.430338 -751.835927 -781.693605 -799.352201 -806.112201 -803.210301 -791.816642 -773.038975 -747.929390 -717.490559 -682.679715 -644.409659 -603.546825 -560.906996 -517.249534 -473.271051 -429.599429 -386.788809 -345.315561 -305.572187 -267.838743 -232.108519 -196.992167 9041.503469 10025.367792 9122.180158 7625.180864 6390.871838 4906.900623 3787.901468 2415.037393 1365.766988 971.353699 975.308562 1068.333115 1147.139532 1181.047510 1158.563483 1080.549245 955.887096 797.395500 618.556605 431.460099 245.849173 68.927686 -94.412002 -241.186849 -369.891160 -480.104336 -572.163378 -646.903213 -705.459043 -749.122151 -779.240215 -797.153355 -804.157608 -801.488102 -790.315115 -771.747316 -746.837823 -716.590029 -681.961387 -643.864378 -603.164656 -560.676923 -517.159325 -473.307314 -429.747851 -387.034770 -345.646393 -305.989070 -268.427383 -233.461838 -202.879386 -950.021771 -915.013714 -920.663627 -887.039814 -846.213240 -827.105818 -753.706389 -751.254473 -674.885482 -675.021145 -603.507667 -604.050600 -538.374020 -538.955905 -479.016161 -479.575840 -425.080848 -425.607740 -376.228467 -376.720756 -332.120687 -332.578348 -292.421865 -292.845459 -256.802158 -257.192578 -224.940407 -225.298799 -196.526535 -196.854234 -171.263442 -171.561929 -148.868448 -149.139309 -129.074342 -129.319235 -111.630066 -111.850683 -96.301084 -96.499131 -82.869487 -83.046655 -71.133857 -71.291806 -60.908945 -61.049285 -52.025180 -52.149461 -44.328056 -44.437756 -37.677422 -37.773938 -31.946689 -32.031336 -27.022001 -27.096005 -22.801369 -22.865867 -19.193796 -19.249836 -16.118406 -16.166949 -13.503591 -13.545515 -11.286183 -11.322283 -9.410662 -9.441655 -7.828403 -7.854934 -6.496965 -6.519612 -5.379436 -5.398712 -4.443818 -4.460179 -3.662464 -3.676312 -3.011566 -3.023255 -2.470687 -2.480526 -2.022335 -2.030595 -1.651592 -1.658507 -1.345769 -1.351543 -1.094108 -1.098916 -0.887512 -0.891505 -0.718316 -0.721624 -0.580075 -0.582809 -0.467390 -0.469643 -0.375747 -0.377598 -0.301380 -0.302898 -0.241162 -0.242402 -0.192494 -0.193504 -0.153224 -0.154044 -0.121571 -0.122234 -0.096061 -0.096593 -0.075471 -0.075895 -0.058782 -0.059115 -0.045140 -0.045396 -0.033816 -0.034006 -0.024178 -0.024309 -0.015661 -0.015739 -0.007743 -0.007771 0.000076 0.000098 0.008293 0.008365 0.017419 0.017543 0.027985 0.028164 0.040548 0.040785 0.055685 0.055980 0.073966 0.074317 0.095923 0.096323 0.121980 0.122411 0.152355 0.152790 0.186919 0.187312 0.225003 0.225284 0.265129 0.265198 0.304671 0.304385 0.339411 0.338580 0.362993 0.361362 0.366250 0.363489 0.336400 0.332089 0.256103 0.249719 0.102378 0.093282 -0.154603 -0.167182 -0.552842 -0.569809 -1.139909 -1.162318 -1.974382 -2.003426 -3.127246 -3.164256 -4.683191 -4.729618 -6.741709 -6.799096 -9.417876 -9.487821 -12.842703 -12.926808 -17.162932 -17.262736 -22.540126 -22.657033 -29.148968 -29.284150 -37.174616 -37.328914 -46.809096 -46.982858 -58.246742 -58.439400 -71.679273 -71.887297 -87.293980 -87.499014 -105.296510 -105.392831 -126.078081 -125.447818 -151.438523 -146.091116 -172.429782 -162.892796 -181.142394 -171.244387 27278.553635 28550.444670 22502.784474 27901.260253 24661.720327 20451.931408 22048.677232 22032.827933 20036.066921 18123.542616 21725.609942 29937.960045 22114.470479 23273.846230 22675.806634 15650.442276 11182.619267 18240.938398 19572.725185 18684.116861 21629.013215 16791.840480 25466.778641 24128.489232 23946.030334 23558.062897 26042.757741 20476.118474 18777.543244 21159.628788 18756.096333 5214.458836 25702.397155 25489.482851 24183.315082 20806.676910 13864.919106 22111.320383 25364.236649 21511.359921 13138.813508 22740.793563 12662.900667 26789.548459 17516.129771 11379.099155 28244.864284 24536.230479 26962.140235 20496.448408 26716.819016 19302.504564 11469.685496 17086.388049 19278.554138 23551.265447 24489.153469 25823.305059 26379.251313 24998.602883 21460.995673 27885.899511 25919.711975 24475.667702 20269.940000 26361.204386 24667.547836 24239.704428 23654.083504 24778.216056 25444.546901 23974.972472 21987.282712 22600.894985 21653.965163 20373.986584 13137.486824 26713.842216 26451.153606 21201.331323 21122.435392 25788.980993 23296.257787 20310.691068 24374.808500 25520.393485 15474.994117 15373.847944 24661.896952 25610.408606 19888.815972 26559.884313 23932.902774 22011.818403 22008.653677 23795.181954 23728.552320 12097.742888 17579.856691 23524.252311 23233.669514 22105.231022 21884.530895 14767.626917 23885.626081 15508.292478 21989.803226 24241.164255 5614.006973 18680.875291 25756.208485 24355.419788 23537.555761 11486.087358 22889.250459 18106.701629 23917.900308 11535.365096 14455.543197 8560.580423 8420.176884 28153.407145 24414.935888 12705.315271 26991.234582 11011.660499 19941.681285 12538.055588 13954.247060 18440.720518 18399.977182 16506.390777 22998.380750 24144.280503 20880.100544 19910.580956 14269.994978 20800.542167 17630.066531 10881.085094 19949.911506 21066.020130 14151.180826 26907.347429 20204.513176 25459.582061 27471.476225 21975.629402 19724.446917 16085.251787 14663.944988 19275.737824 10216.656820 15572.390774 22082.886129 21464.385039 23751.353606 24501.408628 20272.180496 21678.562177 16908.701727 16545.682812 8240.556368 9856.146659 11007.081462 21911.542147 22824.816719 23684.257793 18286.056512 14113.288274 15999.830627 17061.993267 14128.805727 7483.610259 8169.767420 1659.639957 24985.062187 21754.753322 22957.992205 21811.346413 22127.079319 21503.051326 15588.384671 17855.363952 13169.973944 5348.063856 1996.766337 22180.507087 18850.379400 23733.149004 17903.702214 12814.557934 6702.397299 5926.791205 9258.496808 6152.134170 3267.041104 4078.948249 23256.002504 19968.273341 19502.465301 21517.254100 19310.795460 7311.849034 15206.530713 8727.083815 10458.531308 7640.747428 4747.827420 22915.906626 23790.980935 20850.525508 21750.517518 10787.593670 11093.049494 9644.724188 9105.729262 4692.988861 4560.810326 3041.309154 21377.255136 20341.765933 23011.832915 19558.142052 15855.467902 9910.789069 6733.242186 5212.434086 3127.140649 2910.875902 6591.608909 21106.870587 17737.729126 18763.441841 16741.580904 16482.381984 10084.483075 7002.931059 5670.292449 7223.556440 8403.191476 3578.213296 22478.552393 20363.529875 20860.662712 15476.825113 15445.591336 15702.045849 6226.689940 7654.186577 6161.890640 8174.221723 3706.709983 19407.407343 21393.670281 18251.022806 16921.005659 11010.868900 13173.641224 15476.496159 13861.197019 8718.449767 5946.411944 875.135050 19191.281271 18720.367226 19769.230722 16145.229953 12606.162299 14458.831218 9925.112280 6206.858299 12888.446745 6225.459481 4211.658643 20706.473992 16914.960765 20216.013015 19866.791698 17541.354543 13267.591034 10382.447996 11545.563183 9289.645126 7404.613863 4498.729653 20743.060890 18774.377819 16347.878310 17504.170110 19852.322097 5990.935534 11890.975046 6050.356717 8482.892322 2385.685551 2258.810558 16927.483716 18245.059452 13980.207155 16376.413597 11611.936219 17734.832251 13280.042475 14083.577906 7694.882835 7661.469188 5066.173128 20459.772275 20275.336357 20083.723720 17810.032426 16572.603879 11876.058734 8794.872737 9896.143394 8457.855442 10620.653689 4759.682504 19161.111457 19418.651998 14486.833023 11022.587364 16923.051505 8036.693194 9070.277860 6491.773408 9428.637051 6281.556708 5413.710336 20494.893331 18097.832095 21217.417654 15693.589713 16522.686095 9418.383315 14193.521698 7374.590714 7903.011851 9421.783358 4323.811396 22786.054182 22247.105981 18595.818773 18265.846550 17176.233937 14130.771784 10751.563360 9422.286779 7696.349414 7347.080461 4543.046060 18774.718380 13444.067812 18646.418743 14618.301540 17729.366123 13656.691463 7656.348534 8385.923631 3844.041243 7130.803363 3672.344506 22094.801284 18966.903981 17470.277217 14925.294267 16370.947392 10576.573243 6792.193592 8298.337807 6166.487911 4120.689188 2876.012334 20857.400397 18918.185102 17151.427148 15221.539629 18836.537427 9374.297308 9462.416409 6994.804431 5157.423595 4219.756222 3465.447198 20563.459297 21618.759706 16869.671182 16378.832878 13685.690171 11951.032123 9253.329802 11360.496151 5381.683182 2641.969031 3981.173916 22140.132334 17299.131678 14160.986617 15042.756227 18788.425206 11238.164502 12390.911758 11978.440058 7420.229521 5938.278434 3507.657284 18686.524907 21165.108411 18344.955154 16102.140379 12398.641494 11366.729031 9752.632789 8552.019853 14072.493756 2610.317937 5396.112408 20620.300714 18867.099489 17965.501900 10815.637261 14030.842740 10253.744566 7734.919919 5635.032827 9176.514352 5222.764723 3736.040911 18950.632237 15352.083486 17576.593639 13639.947525 7217.928439 9587.225962 6890.115214 7959.550951 3612.487969 6353.152333 4912.932553 18620.265200 20059.140940 19230.770724 17175.629045 16516.780529 8297.445505 4326.782139 5619.608377 8717.370036 3912.356855 5855.979959 18466.520839 18455.124336 13242.687913 14588.897945 11263.669201 11882.546357 12660.430258 5798.340540 4264.209982 3434.943893 3902.647830 18650.169881 17889.459089 15860.249439 10927.707027 16322.125541 9098.108517 10364.999272 8986.610191 8792.136761 4995.024099 5380.913088 16092.463488 16809.747557 16087.999889 16338.537683 10678.233704 12146.103699 7367.899355 6765.861866 5196.252179 3342.646876 6714.643262 18369.381342 19457.389254 15996.471183 8331.680213 10883.777448 11142.871646 6520.364021 13872.116012 5563.161125 8494.028935 5971.346740 17429.071606 18023.148999 16084.931004 7179.251142 6239.278966 6526.346823 5519.775194 8545.247995 3878.092870 7869.034985 3504.612109 16777.387888 12197.136927 9754.857620 15325.005595 8885.458355 13367.744606 10278.350728 5124.259038 6988.238371 7267.183287 5014.173430 18511.405061 14829.594964 14655.918026 13373.666162 10961.324636 9235.640388 6238.854588 14429.162700 8419.169702 4818.971165 3461.871878 16989.494335 15041.681260 13637.091808 11917.044533 7985.355758 12531.641301 13463.168866 4727.989916 8438.053957 4770.639629 4534.922816 15084.551202 15540.206426 16193.016240 13751.483103 10336.613557 9877.535095 13303.694015 9836.623551 12422.698079 4709.149088 3318.176375 15574.595367 13528.495029 17427.376622 14057.223500 11929.659427 13993.440645 9065.481636 11108.336931 11333.204589 6299.877339 5839.416531 17590.987484 19438.322076 13880.123770 14826.919602 17673.636738 13244.388753 13676.471939 10608.930118 7171.796076 5648.169850 2968.414559 16971.105431 16850.975277 15725.487913 15256.273410 12585.857069 13641.100242 11382.417571 7582.432622 10677.889534 5537.930447 3404.228871 19788.243019 18690.068340 15524.495060 18105.736310 16013.117065 13890.795086 9102.611493 9965.606589 3950.794104 7211.937104 2974.418715 18886.872253 18706.013248 18043.778927 13882.733493 10102.027634 8066.539814 9632.689366 8290.704182 4027.352667 3486.969313 3136.897921 19125.870759 19963.669936 16780.591305 15902.331228 11962.678847 11534.769822 8183.186217 4907.988012 6521.949237 2812.390054 3675.584154 17096.413412 18954.021983 15332.267992 12796.637890 7759.018412 9167.584124 11294.292076 5536.925058 7470.642558 4458.162100 1935.285980 19962.069458 19271.105859 14927.456484 7292.798583 14305.366755 10210.652292 10468.939790 5080.555455 9730.797801 4969.310050 4113.004708 20014.429147 16019.150087 17133.666341 16118.891522 13516.588185 12286.153482 10320.252751 14199.222864 7157.110445 4064.407124 3161.887019 19941.014230 16400.682777 15777.197091 16160.484691 13705.721845 13670.079584 12397.009928 11512.104083 6598.258629 3452.206869 6036.504921 15374.242864 13882.405854 16685.559821 15453.165898 12763.969162 11645.500203 10075.303334 5088.929673 6043.467260 6629.809689 1634.316017 17865.310400 16759.207514 17492.552338 13720.747519 16431.162349 10924.730789 6353.865289 5294.893131 8305.581600 7168.585916 3302.699291 20280.941863 16602.016634 15906.798841 15491.623820 16311.365008 16267.587914 15574.485738 6362.680645 5529.873660 5123.642307 4418.492546 18810.555093 19291.139519 18199.456804 15099.818122 16791.538206 11664.132099 10623.577006 10089.461493 5957.166527 6050.052013 2852.440436 16466.413291 17831.692428 16816.514901 17803.673836 14051.630997 15075.245063 13681.017939 7825.351348 8903.745939 6478.171813 3914.990908 16089.501233 16735.176882 17041.879562 14989.500300 9800.809378 13044.911817 13546.517972 6323.834616 7097.851128 5515.566399 5699.868065 18774.430879 17144.863444 18266.532172 16568.721650 13979.800913 14959.229491 10301.723191 10855.187209 4763.679990 8360.999511 2006.103187 15325.342624 17354.283864 15460.661195 17061.916722 14493.621701 9566.413416 8826.149435 7740.102901 8025.643093 6741.638616 5130.835276 17664.833329 18338.431578 13538.402244 12075.588053 11376.997251 12566.144162 12734.022433 8840.131565 10140.387449 6357.532533 3343.651435 18106.035962 17729.149820 19858.490695 17142.420084 9466.778083 12060.538272 11044.422236 7181.404871 6270.843167 8481.987250 4343.006395 20294.822039 16676.553663 16606.641062 15461.947383 11595.043215 14507.109984 8377.394626 12531.373451 7617.113980 9786.177466 4353.745660 18086.709158 16216.317039 19627.046192 18805.669905 14957.502698 10580.534905 12091.363632 9966.101212 10630.642924 6751.485822 6077.490963 19991.791154 16969.536975 15411.969799 13462.040837 12213.780325 13361.536564 12504.972182 7025.214791 11679.363947 5759.058903 4302.666288 21054.749488 17058.864136 14062.497803 18688.874483 17194.906141 15446.973327 9365.288680 8873.309740 5476.700331 4301.681784 1851.096576 17167.543768 16264.197497 16098.876855 17186.851434 15694.906571 13803.702305 11049.230080 9426.065046 9853.449675 5894.516067 6702.471422 15011.638936 17613.673000 17021.948726 17273.985946 14098.925486 10737.150685 14566.374795 4571.020238 9438.183206 9722.910355 5619.549850 17923.694640 15886.509624 15370.626109 14716.172882 14350.171660 11244.878218 10886.291094 8731.847336 9148.229209 7358.385904 4106.641003 16211.655791 15881.582129 16353.225931 15923.312581 14071.287293 11400.727377 10424.018754 6857.440375 8184.753678 6105.320844 6248.138632 17944.355577 12608.269693 16558.101969 13438.861768 14816.822703 12896.420831 13824.754810 10764.828460 7516.560053 3127.526300 5573.875825 16683.012810 16339.608650 16707.038595 16011.555744 12059.501439 11426.316630 11077.731099 8189.785194 10228.887141 5276.213132 7958.309436 16996.476567 16844.927356 15827.716963 14918.568199 10967.479493 12313.449596 8702.859525 10666.523448 9936.486443 6391.493165 3049.577075 13854.783880 16663.427145 16452.513801 15681.575390 12857.263134 12820.094663 11909.717673 8212.587575 10246.409706 7753.593502 5311.672200 15516.379380 14610.384805 16884.175513 15109.939855 14596.148825 12420.396078 10151.717817 7593.463040 11177.677454 8585.999394 3150.939774 15580.266049 13804.784009 15036.170677 14044.399932 13846.162716 11106.570598 10023.644257 11677.553447 6972.872328 6288.980425 4334.617011 15784.607106 13448.834529 14867.927059 16644.333823 14217.076535 9635.717198 11853.578610 10803.969208 9654.580412 7169.239662 5700.434460 16497.493307 15815.801486 11957.246847 13331.741589 13575.094078 11797.811924 11323.259330 8846.560974 5005.053271 5313.733863 3015.491358 16289.579526 14663.064509 13600.891354 12309.304215 12232.335987 10621.512920 11503.217653 9710.885272 8344.893093 3204.236863 3672.342471 15609.188797 15354.610825 12460.339208 13359.207295 11065.147967 12020.442864 6301.426417 8559.620532 6022.481900 5542.215912 3149.481324 14737.714638 13048.185283 12999.616420 13355.803626 13422.840277 9004.748382 10140.828372 11721.060971 7677.190979 5734.659732 1217.508974 16089.255195 15581.770542 12027.623728 13386.925647 9062.189882 10469.921908 10744.527458 7363.503295 5766.046855 4535.190837 3995.046125 15921.529919 14599.193979 13332.275186 11856.914668 7162.511791 9362.253029 8652.419261 6323.595591 7262.774913 7770.895610 2085.831346 11764.402191 12939.431617 8865.863893 13726.191333 9567.336396 10769.352586 7972.207926 9090.086246 4522.594758 5210.858442 4913.004677 13544.110240 14784.165330 12958.509581 13239.592714 12782.208351 9796.278738 10207.543815 8405.016585 7772.214470 4284.152970 4513.592455 13283.401265 12375.589742 12954.391120 12676.339948 12891.247249 12378.785659 6726.687391 11235.359448 5235.936478 3919.710259 4857.247803 14314.136890 12110.488013 9595.812148 10101.712912 10925.851865 11985.658398 9059.478378 6813.685612 6978.361783 6661.330682 1875.167692 12600.695641 10845.228514 13248.172211 10067.473682 8424.604981 5410.502166 7498.782519 6403.927805 6031.630184 6300.256574 6275.970668 13579.812810 10755.938656 10264.894896 9642.323289 8997.956708 9039.496909 7147.720266 7985.830290 4808.679280 5245.725247 2941.712424 14086.008327 12257.505453 13338.398716 10887.545172 12059.093909 6302.725920 5055.286440 7144.538880 3900.508971 6.567568 6629.695161 10134.416279 8819.614382 11869.154772 12377.956681 10956.784562 6651.247055 12843.114954 2419.188045 5979.512168 7904.515417 4562.557930 10711.015362 10992.597380 13626.341188 9604.179478 7001.320033 11167.076176 10696.363522 6458.203888 6440.963023 2715.816939 2381.502058 11506.368464 11054.829698 12036.781745 9636.015458 10419.461051 8354.675627 10064.241091 11931.035087 6011.093891 5723.840240 4869.395167 20484.458055 30378.025790 31995.268664 22563.165911 14650.211390 20652.048559 19927.368302 25013.323120 21863.932477 17946.225359 15467.129999 10715.333389 5236.943271 7716.278545 25560.446671 14285.846469 26835.284712 22618.382233 8241.782900 25684.292881 14514.618626 10281.820195 19819.263709 10534.556468 10940.027177 8059.784478 4485.082742 14333.091838 11705.656441 18135.018275 14839.554138 8920.681762 7163.369811 11149.099170 13441.093889 13483.206163 18508.466668 10642.889302 6854.340528 4664.467200 4948.324781 6351.690765 16542.959990 13496.368636 13870.056468 16118.627261 19915.148631 16175.411582 13653.291739 15342.231757 6204.481482 19971.248613 12927.764539 9691.696498 7059.737177 6588.272849 18598.032869 24716.612415 16064.224854 12884.431558 19516.131927 16336.326147 17350.807113 13000.179635 15692.573843 6500.049053 10585.900986 11455.185227 3708.807516 2294.182891 14255.941561 24452.743762 13930.730875 24547.882950 20818.482549 20731.263254 22147.289463 11111.092378 10331.799247 10889.764947 9743.577511 9288.399072 15380.899803 4109.564958 27343.512206 7385.007329 13890.464973 15905.326977 7105.360631 21248.872220 17779.665605 20367.189921 11042.574512 10450.743515 7745.244453 8154.387016 3864.909316 635.213533 11112.303249 11122.658104 11576.926443 21331.846479 15019.635003 16086.125887 8954.685031 7887.094938 7409.078549 8356.079820 11571.721891 5879.419047 5878.548495 1812.551962 17465.222907 19472.613222 9725.320174 7074.700903 12772.919114 9466.730118 8887.499503 7785.773162 6880.890148 11378.301107 10564.423719 7622.609042 5978.063006 4800.858170 9603.991041 12428.640774 12197.902839 7829.181644 14037.852972 10653.761585 11621.911551 11244.113503 12921.878879 7139.358047 7228.181872 7837.552835 5239.653227 2242.174276 9667.966590 11312.504852 20800.285273 17217.655203 4598.923593 9440.353376 7565.945180 16379.182375 7152.955790 12620.559614 17556.843313 10534.966781 4586.432529 5244.375545 11347.667315 5087.945533 10929.509877 21675.000594 9323.467084 15000.485281 6908.927838 12618.445222 5758.718853 10104.713121 9865.731224 21625.443718 5175.183098 5202.230502 6688.210729 5057.845490 7091.633824 13054.362754 6779.199784 5442.056032 11095.196591 19065.874615 19662.643745 8468.810413 5924.345625 7681.366311 6610.019405 6077.221562 6240.110847 9011.089509 5533.917902 5195.585012 9287.913587 1050.943614 6979.184370 13686.089918 7249.486552 12405.540614 8627.774424 5601.300374 6486.804465 6052.387747 4252.042923 3859.758590 8681.919790 2764.703052 5238.470469 2548.454911 6999.271407 6002.949621 1803.187647 5851.255319 3568.810939 8125.701043 4180.108431 5399.658633
</DataArray>
<DataArray type="Float64" Name="Velocity" NumberOfComponents="3" format="ascii">