<VTKFile type="PolyData">
<PolyData>
<Piece NumberOfPoints="1945" NumberOfVerts="1945" NumberOfLines="0" NumberOfStrips="0" NumberOfPolys="0">
<PointData>
<DataArray type="Float64" Name="Pressure" format="ascii">
 19458.050426 18409.940568 19177.133725 18207.844041 18346.968162 17662.309959 20577.275601 18687.588505 20989.539584 19088.745547 19207.188820 17813.816395 18990.929313 18543.294182 19119.009964 18456.380288 18933.240244 18572.866888 17609.340707 17481.620134 19256.087197 18619.641475 19754.584948 19130.234675 18404.384174 18194.900998 19568.378948 18956.341857 19717.902952 19174.426224 19699.593642 19170.572497 20800.001569 19811.520841 21078.620042 19796.193988 20025.659486 19422.831151 19197.773719 18983.327422 19319.253883 18868.867438 20068.580899 19063.915252 18431.549898 18141.892194 18757.250404 18745.377603 19410.129952 19679.246035 17004.882794 17625.812657 16410.455186 17146.054300 18436.890809 18427.270467 19414.627972 19408.685190 17724.080687 17602.224394 17834.716802 18154.387710 18491.677982 18648.896592 18751.485281 18635.222499 17512.826472 17426.406400 18024.564876 17896.076516 18149.926419 18136.030847 18116.357542 18248.650098 18027.065361 18241.518595 17971.514793 16981.731676 19794.900392 18884.925557 18410.726124 17489.022359 17144.262613 16510.569513 16874.364248 16265.497481 17997.751204 16441.985496 21021.452518 19123.398272 17302.271955 16821.765157 19443.034956 19347.355098 17892.845527 17229.014910 20078.403198 18354.488679 19143.942841 18208.376384 15922.128816 15621.353432 18569.596674 17749.882585 19355.205036 17262.834577 22703.425650 20809.930525 17008.260830 17390.877415 18239.060563 18188.373539 20058.942219 19252.550026 20237.672330 19077.090234 20916.802816 19574.109444 22343.399181 21669.438796 22823.263108 21919.759652 24711.407488 24126.155329 18277.824377 19717.278753 23120.904515 22017.061148 28874.542621 27308.697003 22330.797699 23154.615426 23261.606405 24794.357841 24840.009461 25363.988515 24593.537181 24865.071943 27380.492686 25550.054467 33433.660524 30129.935943 28957.615779 26826.920699 29781.472836 27869.933970 27728.017868 26479.519496 30600.748417 27757.521096 26618.314735 24652.460619 27097.896384 25527.337325 25335.165049 24621.191192 26221.155779 24717.676125 25520.000522 24765.535842 26902.343189 25433.798320 28556.004353 26895.159997 25802.307836 25594.131677 28684.719084 29036.576943 25450.261005 27204.995033 29318.793969 31219.176698 26564.382643 29176.350579 27018.162597 29659.473797 24867.155836 27969.613537 25800.706072 28575.422011 30327.556290 32262.903498 27468.400408 29463.806347 27060.538289 29293.693786 27288.940286 30470.358617 24887.929053 28063.712107 28291.388090 30981.198309 28868.000752 31034.101524 27089.064950 28706.687559 25416.516817 27244.357623 24192.685678 25383.866267 24018.273924 23873.753071 24167.058094 24019.668395 22780.790171 23295.935959 23088.002831 22645.971596 24353.235390 24048.837533 16348.575033 15945.302424 14613.524401 12754.944912 11542.948154 9832.227407 7171.043780 5998.610184 6015.986470 3588.638525 -156.894561 -2294.257470 -2799.721737 -2711.529252 -3193.584645 -6145.025687 -8662.976218 -8661.773430 -8481.116051 -8274.098602 -7975.366380 -7616.522765 -7230.822191 -6839.722083 -6455.674974 -6084.834213 -5729.272350 -5388.653994 -5061.423168 -4745.611137 -4439.361397 -4141.241675 -3850.392630 -3566.553101 -3289.997871 -3021.421182 -2761.795152 -2512.226362 -2273.827110 -2047.611100 -1834.417625 -1634.863970 -1449.322937 -1277.920926 -1120.551550 -976.900165 -846.476487 -728.660176 -622.808215 -528.725256 -449.594443 16774.123319 16379.242704 13897.179365 11594.698750 11092.161946 10061.910902 6422.882466 5484.509294 7226.887265 4482.689555 -288.617706 -2412.225213 -2652.219219 -2537.309366 -2648.074853 -5281.507765 -8237.593002 -8565.361001 -8374.649311 -8237.746886 -7958.668445 -7609.422333 -7229.090694 -6841.022082 -6458.517818 -6088.270169 -5732.732682 -5391.837572 -5064.210876 -4748.002521 -4441.427657 -4143.090293 -3852.140903 -3568.309298 -3291.849243 -3023.427971 -2763.989448 -2514.614474 -2276.394105 -2050.326322 -1837.240286 -1637.748196 -1452.221937 -1280.790145 -1123.350742 -979.593998 -849.030591 -731.012988 -624.696405 -528.625350 -438.023386 22292.108024 22955.756265 23473.917173 24449.849818 24638.671835 24255.359605 23137.802251 24860.882870 26120.682090 23763.783951 19765.878413 13582.342831 8217.938768 2702.097290 -32.605733 3840.875508 3109.916217 2015.700216 1325.254536 813.139519 327.586454 -181.077009 -703.857550 -1209.655260 -1665.255701 -2043.885978 -2327.728532 -2507.822025 -2583.098512 -2559.247718 -2447.549252 -2263.606972 -2025.913142 -1754.253508 -1468.061841 -1184.897562 -919.231443 -681.681701 -478.762426 -313.114294 -184.110199 -88.684132 -22.225641 20.592058 45.138327 56.346088 58.427559 54.756685 47.872272 39.528144 30.564933 23784.849694 23670.836494 23232.746276 22356.936020 20794.679266 19257.001150 18090.582677 18162.814400 18431.769718 17860.120200 16646.166633 15718.838041 14172.953856 10107.027488 7310.829939 5237.703556 3309.634116 2121.824076 1373.997877 826.365751 325.814133 -184.492175 -702.713692 -1202.293387 -1652.282607 -2026.798823 -2308.234038 -2487.552196 -2563.507219 -2541.566026 -2432.747048 -2252.351634 -2018.536872 -1750.745448 -1468.095517 -1187.894211 -924.450016 -688.319948 -486.051903 -320.395130 -190.877457 -94.604379 -27.128039 16.742430 42.276254 54.343535 57.127336 54.001454 47.540244 39.648152 31.967268 -394.615631 -369.547616 -376.311849 -352.868929 -329.334343 -316.641401 -273.674186 -272.272762 -229.683893 -229.967829 -192.488535 -192.994561 -160.774345 -161.260525 -133.785559 -134.217326 -110.908708 -111.285169 -91.599982 -91.925684 -75.372391 -75.652584 -61.791735 -62.031533 -50.473461 -50.677671 -41.079305 -41.252366 -33.313661 -33.459632 -26.919823 -27.042375 -21.676206 -21.778630 -17.392646 -17.477866 -13.906853 -13.977449 -11.081075 -11.139304 -8.798998 -8.846823 -6.962913 -7.002029 -5.491144 -5.523005 -4.315748 -4.341594 -3.380475 -3.401356 -2.638970 -2.655773 -2.053206 -2.066675 -1.592129 -1.602883 -1.230488 -1.239041 -0.947842 -0.954619 -0.727711 -0.733061 -0.556869 -0.561075 -0.424739 -0.428034 -0.322903 -0.325475 -0.244686 -0.246686 -0.184814 -0.186364 -0.139142 -0.140339 -0.104420 -0.105340 -0.078111 -0.078817 -0.058244 -0.058783 -0.043292 -0.043702 -0.032077 -0.032388 -0.023692 -0.023926 -0.017443 -0.017620 -0.012803 -0.012935 -0.009367 -0.009466 -0.006832 -0.006906 -0.004968 -0.005023 -0.003601 -0.003642 -0.002602 -0.002632 -0.001875 -0.001897 -0.001346 -0.001363 -0.000964 -0.000976 -0.000688 -0.000697 -0.000490 -0.000496 -0.000348 -0.000352 -0.000246 -0.000249 -0.000174 -0.000176 -0.000122 -0.000124 -0.000086 -0.000087 -0.000060 -0.000061 -0.000042 -0.000043 -0.000030 -0.000030 -0.000022 -0.000022 -0.000016 -0.000016 -0.000013 -0.000013 -0.000011 -0.000011 -0.000010 -0.000010 -0.000010 -0.000011 -0.000011 -0.000012 -0.000013 -0.000013 -0.000014 -0.000014 -0.000013 -0.000013 -0.000010 -0.000009 0.000000 0.000001 0.000022 0.000023 0.000063 0.000066 0.000138 0.000143 0.000268 0.000275 0.000487 0.000498 0.000846 0.000865 0.001431 0.001460 0.002370 0.002417 0.003875 0.003949 0.006282 0.006401 0.010143 0.010336 0.016367 0.016682 0.026457 0.026974 0.042897 0.043747 0.069779 0.071177 0.113769 0.116051 0.185557 0.189245 0.301966 0.307840 0.488844 0.498030 0.784824 0.798879 1.245838 1.266803 1.949923 1.980293 3.001373 3.043849 4.532607 4.589190 6.701939 6.770138 9.688992 9.742038 13.712690 13.591162 19.300051 17.990610 24.247733 21.809704 26.350512 23.780549 17172.532424 19084.636224 14711.694189 17838.470034 16838.270246 10881.678380 14887.104644 15896.880667 13790.506274 11696.496866 16803.296626 17012.485065 16294.836809 11673.422740 17313.689073 12532.228094 8159.130303 11922.118281 11345.882650 10827.259068 13946.984949 11386.297501 18092.583713 16878.897975 18347.053188 17153.827122 15143.593376 17364.711793 8004.335809 14351.390469 11640.871782 3414.595492 17146.740803 16985.308924 17804.826811 17482.651856 10224.644681 14624.023257 16682.470768 11789.769404 6911.060566 15284.530429 6803.320518 15432.562026 11925.190943 7564.503211 16996.477622 18879.352574 16677.449745 15553.786921 14124.240868 14258.280840 7228.564756 12697.345434 12610.457829 14814.859062 16993.914731 17036.703963 18522.904571 17274.704412 14210.334535 16811.810864 15358.858642 12194.034447 10883.630964 16827.076363 15212.396182 15959.385078 18731.765700 17751.446605 17044.543520 13795.762602 14814.795078 15364.357866 12986.946917 13911.082591 7271.116016 17293.874327 17111.605837 17137.726136 16080.813833 19559.475442 13497.558048 12351.487137 14613.925170 14962.349527 10049.227120 9672.189738 18817.962688 18859.607285 15976.775397 17610.486701 18055.267888 14432.286909 11432.005807 16123.734896 12461.910442 10576.557498 14241.768805 18243.067495 15897.838178 12969.561948 15997.792985 10329.406248 16745.770977 12071.486918 12513.638557 15091.225718 4361.669217 12097.946629 17602.570987 15270.616905 17160.727075 6207.074330 17255.526491 9807.014767 15666.540150 6898.927356 8472.304921 6787.809849 4819.492616 18050.018886 17484.553834 10589.420388 17045.154843 6882.482736 13283.476119 9102.338526 11005.650317 12675.046649 11885.717337 9456.340336 17863.084360 15658.772214 15740.664575 13889.609405 12641.198288 13903.261199 13885.987904 9732.785572 14898.246283 14218.483476 9258.901985 16466.540013 15822.345584 16793.081919 16697.251950 15096.212846 13375.320462 13421.540387 11480.151610 13539.348556 6974.946048 7659.095505 17847.606306 16148.252681 18062.280134 15855.906222 12405.465855 16441.193949 11156.075744 10262.496154 4428.944607 6754.329312 6714.413058 17646.273694 16364.888583 16486.785935 13625.442928 10744.155324 9463.655826 8752.688459 6236.072598 4268.058034 3141.462232 3273.254582 16548.674386 16303.956115 14366.392147 16346.978126 14107.739666 15223.891804 10108.254903 12042.883159 6240.170418 1643.527064 1917.968040 17794.822873 14502.087804 15810.486357 11093.093798 9250.854781 4687.332032 3683.353703 3703.274850 2254.190505 2294.713088 2225.169161 16247.077187 14833.642218 13625.688208 14133.071585 11447.243131 5258.486671 7094.206788 5956.451498 5238.297206 3230.907862 2376.349618 17872.818879 16124.513069 16504.245289 11449.851149 6752.703497 6507.634178 7172.595138 3308.327612 1871.710323 2657.702251 2027.330483 17165.072897 15905.796134 15911.432613 13497.831989 8833.122441 3857.926633 3389.568791 2565.758869 2186.367777 2341.026579 1990.665136 16308.512544 13734.406755 13688.254202 11428.559981 10497.209461 4018.133498 4822.029154 3336.658264 3510.668567 1474.517793 3143.073842 18051.403223 15688.576206 14419.058781 8513.357309 10467.888267 7653.740308 2956.138508 4522.150409 2526.260628 3139.269782 823.118401 15669.241530 13263.109214 11940.834261 11020.222827 4718.879927 8191.702488 8446.661570 7988.772062 5296.309252 2812.721434 1338.120938 15289.646698 14223.205196 11563.999818 10284.738521 9123.909869 11005.514170 7154.111234 2422.177656 6729.568786 3336.466889 3174.679503 16206.165533 13688.449963 13074.134288 14348.065869 11773.025374 7988.124024 5676.022011 5200.751304 5595.062109 5942.517431 1100.971093 15373.493790 13834.395409 13929.058696 9985.643478 12508.857540 5574.183107 8244.745227 2877.191088 4180.679523 2090.160668 2430.158410 15535.972662 10454.781369 8312.077739 11063.275497 10977.213074 11157.913274 7582.558305 9355.501970 2787.021169 2606.843852 7035.648663 15853.581442 15321.336540 12880.456383 11023.760108 12731.796092 8513.892622 3206.183859 4935.798764 5121.235097 4357.999353 1851.433250 16247.261161 14767.974835 13263.931454 7881.676830 10033.933482 7666.187024 6859.019041 3677.332456 6776.237967 4787.248772 2669.875758 15393.245747 14400.138911 16914.468636 12070.861955 10791.619901 4612.664334 6625.249458 6360.945916 4713.267615 2954.033668 2197.985382 17779.479579 16718.821654 11621.707286 12026.065047 12407.723679 9624.976884 9200.514859 6066.772105 7972.699360 6551.930020 3060.645863 16815.343883 7503.909211 13898.864008 12179.764606 13023.969346 11583.316426 5833.557433 7620.873286 3326.006116 4886.677850 2977.752021 18277.165972 16048.632328 13788.991636 14124.151644 11766.978767 8289.645486 9265.514647 6404.096201 3803.392967 2831.881593 4628.222428 14871.404655 14522.024623 13938.745576 12923.642691 11569.642225 9776.511201 8543.414312 4938.115252 3700.335784 4548.892956 1220.021682 17328.867627 15547.297935 14630.665411 13612.747978 13250.420622 11219.584652 8398.706836 11318.718816 3082.010669 3204.705302 3593.088863 16013.285269 15367.406500 12021.570049 12866.475263 14683.037116 9440.142451 10268.330786 8153.528189 6753.591294 4937.676369 -7398.911598 15225.100257 16175.489095 14332.601652 15573.587451 13758.254100 8394.168684 9531.283890 9312.973446 10390.443582 3911.652557 4811.246781 17159.648161 16424.819439 15075.560855 11241.776996 12740.912683 7867.800431 7044.537785 3777.628070 6185.541786 2521.659327 2009.370771 16902.216804 13991.368559 16199.816682 11494.817857 6130.437162 9591.939633 4925.008256 4468.227188 3098.275744 7660.826454 18432.009466 18617.755046 17378.086824 17214.636802 13309.313121 13652.465014 8389.359600 6265.115040 5308.197535 7998.570332 734.022129 3126.361715 16828.285751 16211.896891 16044.232151 13922.624738 10515.372470 10620.555587 13841.905803 5954.183190 4872.450417 2360.907105 2959.717026 18196.063602 17585.586766 15424.409282 13704.651396 12106.577634 9875.791291 9435.978490 7292.157204 6043.872680 4519.197942 5327.030100 17017.549228 15459.523951 15525.883193 18168.628911 11881.135016 11315.602782 7826.031348 5974.730572 4958.953979 4116.130183 11196.059987 19411.656393 17754.455624 15611.453831 9127.401238 13444.085595 12115.122071 5785.893617 12328.363434 4690.828263 7750.853247 2546.539153 18431.875561 16407.360392 16440.052138 5504.295958 6671.334721 9018.861788 7571.534802 6386.364400 2728.855715 7302.741596 -9923.043354 19995.131789 14324.301133 15045.780345 16278.616884 8658.255332 12212.666204 12163.702503 4058.897889 5847.099890 12211.367969 2749.431940 21381.770538 19436.879365 16003.177698 16778.328696 11933.947134 9734.433225 4239.282464 16239.518472 6731.885859 1628.354086 1721.718461 19525.763611 19734.462749 17960.797668 13652.025597 11010.748534 14954.177580 16022.901767 5678.693167 8839.009609 3817.400675 3649.096659 18158.508797 18722.740036 17895.710475 15403.959513 16455.877410 14257.278175 15103.525307 8350.426356 9387.975920 3663.411637 1636.049872 20053.945513 16987.263100 20514.350966 18534.526493 14301.289072 15114.973680 11316.941158 12900.909037 8427.088739 6873.942174 4270.152461 22134.232636 21486.573750 18583.939574 15682.358161 16482.663983 12652.409085 12079.396488 10364.401476 6400.661165 5027.475574 2558.287886 21208.165146 20315.060443 20205.612567 18964.362411 17730.409708 14893.539587 10472.463204 9459.784414 11191.002028 9549.942971 4716.866121 21756.914708 21317.312171 19385.422967 20841.267325 18637.776695 15183.534395 8834.705951 8873.489638 5412.475437 7065.348745 2090.839901 23967.276761 21435.316333 20253.665454 18736.836813 11594.880469 7454.707652 7549.434093 8668.528301 3176.797778 621.635564 28715.005526 21945.226033 23165.581631 20875.826290 17736.139181 14513.964973 12217.889628 10633.685238 5475.929983 4708.512908 4818.053374 3624.569787 25130.151164 22906.705451 19593.229674 18261.961833 12292.893187 10464.865078 11498.596664 7817.748776 5021.917945 4656.745474 14172.519157 23431.896547 24827.075183 15523.549639 13572.932016 15632.827719 13606.726711 14563.102112 11740.314113 9986.789475 5821.188008 4234.317766 24126.481047 21015.949920 18906.941109 18376.936968 14556.538223 13833.405531 15490.886243 16314.102262 9219.773232 4363.882839 3650.121557 23861.495457 22691.673810 22869.288552 19593.411112 17799.298943 16953.289682 15794.327105 11866.573609 6733.776166 7009.563852 7346.227397 23086.992619 21485.327803 19168.096131 21944.932501 16412.916690 16881.397941 9439.071575 5006.870349 6327.335293 6316.012232 19172.341998 25948.505430 22380.546932 18821.169969 17513.615983 18634.908334 16362.757685 11478.463208 6052.732776 11916.426838 5600.670475 3814.144050 23805.119844 23796.301958 21390.193748 19371.707154 18914.058101 15231.529143 17764.493767 8995.005962 6299.092314 4109.013867 3784.793898 27661.657824 23162.370646 23252.027858 19521.701767 18454.293358 16885.969370 12401.156736 13088.206685 5500.047713 4067.271471 5358.163552 25728.973798 22503.118585 23792.287792 21228.911586 16823.617029 20681.836690 15035.476062 12564.216037 9128.403803 4327.821047 24981.397596 25230.627363 26099.597230 22568.755447 21155.378468 17894.818962 17339.157449 13849.324541 13368.230961 10065.510344 6040.637429 6384.076903 27734.414026 26593.851960 22123.473746 22148.117404 17113.503733 17815.968320 14402.031561 9058.083233 4865.421236 5379.064400 25956.686957 26469.129823 22206.487868 22135.698090 22039.661638 17501.731312 14315.691508 8881.323868 13685.354882 8773.346434 4818.873455 6727.928708 22785.399528 25038.605784 22371.335944 20205.436801 19069.411732 13149.256966 16628.995022 9908.044769 11095.234880 6313.625937 15838.595771 26149.005568 23946.524782 23165.616312 20959.237675 19097.898324 16061.335967 16717.656213 11078.476001 6648.300680 8848.687145 16638.438620 24247.102126 23697.473598 22352.660776 22201.397318 19125.106893 19211.803526 8332.590958 14012.574752 10186.270615 7411.241787 9888.055839 25063.477408 21568.009369 22695.995895 24512.778956 20698.266379 18962.053024 17047.239830 10666.422645 7604.970931 13335.001531 5150.719117 25975.173209 23291.951315 25309.880122 20389.922335 17884.775679 19913.414474 17732.501362 8401.924475 11328.101319 7355.269273 7410.865297 25821.463828 22773.199628 21407.023900 22801.106304 20796.890752 20523.551307 15542.220269 8435.935567 6590.212503 8891.752678 18859.550149 25154.866849 23263.821022 24188.387607 20406.124310 21644.358839 18156.364243 15614.138049 11852.438860 13522.325405 13154.919439 15303.696959 25876.867693 23260.046472 23302.026773 23280.784826 20292.794060 12892.830430 17530.112005 8785.882813 8952.211880 17311.657505 21195.148023 26179.140996 25358.683185 24745.772411 25697.910866 20059.991860 17158.214896 14808.010676 11311.421491 11527.284232 16242.840285 6706.998645 27013.779329 26174.361011 25137.600339 24992.562830 21800.699355 17385.981277 13862.270724 14231.118629 17595.133093 8598.621914 23151.167609 27818.245333 25513.631668 24799.863679 23211.132679 21533.806440 19988.308898 18398.153717 16455.200888 14406.014359 22250.180999 20138.550450 29971.790726 26318.152089 24362.890969 24387.929298 19574.361825 16679.860647 15400.618211 11477.140362 18229.275241 19127.669917 14332.301087 29764.249885 25901.543253 26919.957562 21128.077995 21920.782456 16457.274012 12871.805624 17338.089272 21882.515206 26690.178440 19732.050110 30366.316605 30094.953987 25779.330784 23817.218419 20858.502399 19921.853401 17160.485389 15984.678975 14357.883259 19074.957794 31663.324510 28924.325807 27536.964807 24420.040972 22184.031246 23459.900163 20222.230168 18947.960372 20858.623013 20770.311905 14324.552457 19332.023099 30886.726318 25883.972305 23916.851336 21168.988137 20621.293816 18760.821695 20974.960392 19667.728640 21040.790360 21830.516254 30731.277586 27059.099795 24516.980063 25186.818517 23392.540154 20869.279992 18907.489342 18061.100471 21264.249414 20147.884785 13560.518080 -11338.378411 28896.536454 27073.009525 20362.015258 24047.336145 20531.078160 18854.480619 18274.785074 20864.207086 13288.854955 27804.160420 23235.778036 28786.381003 22611.786870 24415.659243 21489.744903 18697.511986 20612.105186 19012.656092 19296.550553 16052.441370 30205.338464 15143.514445 30259.950774 24795.561173 21593.944095 22325.555144 20555.357662 22645.876612 22007.486275 19928.468864 21382.181856 14380.608673 15961.881037 29570.319074 25891.842644 25747.756142 22097.236556 19680.756039 21122.834626 20530.695286 21002.010274 21516.162876 16057.318029 5062.922103 25762.536258 26719.107403 25187.360909 22971.648355 20958.269836 20367.698669 22223.767784 21153.655406 13606.172432 17823.082502 12176.826038 30178.805409 30537.067811 25791.736841 23998.689400 22869.138058 20434.205727 22628.538561 20013.343288 20920.201755 21782.088321 2038.469963 29463.117345 30045.414651 22498.387663 28229.796546 19996.462093 21804.271147 22442.096879 20844.047688 22866.860879 14511.531453 30418.403430 27963.886732 25790.715825 28943.554166 25585.258438 24785.320202 21132.537011 20880.983966 20762.724233 22679.262683 16766.667436 26649.677163 31310.832736 28327.795578 26675.853186 24722.730890 22483.691117 21770.944496 22417.070920 21368.672199 22408.436752 24382.779616 -4861.447465 27765.039292 25859.774747 24964.050056 21355.745508 24370.620514 23094.675321 20834.353128 22769.892416 24732.124869 23148.130903 28100.878081 28804.583815 25703.460412 27187.154959 24036.051010 25163.506338 22862.062487 27739.519229 22559.218791 29857.410375 27836.966888 27217.125516 28047.236785 27039.500904 26039.507355 22973.766956 25435.824490 24914.374519 21507.486691 24453.295416 23928.485100 25528.621041 11489.212910 25871.408463 23679.824384 29368.506528 25495.618983 24930.443566 24633.220195 23105.945035 25468.951292 25235.082619 22211.999307 24946.841943 24206.341480 24242.567221 25250.316894 25517.925065 25983.109421 23470.546691 24638.522212 21906.488313 29727.197548 27426.779176 22750.083695 23859.823827 23067.633936 26449.415235 22461.265466 26702.492863 23763.370019 25683.277031 27854.070811 21356.872225 24232.984650 32614.710861 24538.849918 24536.946035 24156.285813 23343.683374 24590.594568 28845.031249 24460.583755 23923.680865 21658.568954 22155.871365 31086.311707 12522.913354 16697.267746 16577.254254 13723.647196 10450.852608 14298.204721 11381.640933 13036.459820 15415.989868 11082.365942 10188.091224 7812.104556 4480.725662 -8829.670335 14155.499517 10870.903261 14219.008604 13802.038501 5254.908589 17569.432323 9244.686234 7484.520525 13289.044053 4326.118867 5812.551880 6761.399724 5751.238430 7388.937378 5378.972176 10636.756487 9515.203346 5084.490203 8728.150902 4109.212106 9934.649020 8227.001105 10970.613958 6562.908825 3807.048921 5679.089097 5560.588626 2498.211331 11283.403655 8803.722965 9518.455757 11288.281718 7716.999029 8895.387552 10833.188721 9816.253881 4790.680251 10185.200939 7931.877309 6491.705940 3134.830693 292.793960 12471.198747 15386.487300 8778.847431 7189.197936 13476.096800 9311.792132 10465.359924 10049.400322 5543.303253 3704.395485 7004.330399 4653.049253 3629.542056 4231.403688 9653.666332 14198.914814 7510.687620 15292.151321 12824.493244 12131.635015 13067.879035 4936.210583 5464.979828 6247.888714 6322.210782 3848.022914 7810.357281 2357.882778 17007.270414 4282.744149 9448.737409 7612.305075 4129.703438 8966.461705 8730.323098 10119.808582 6890.779234 4930.728882 5497.941306 3847.441053 3904.159299 2716.480364 7879.167260 8921.822887 9117.496298 12882.902157 7454.795803 10857.931109 6329.990749 4752.771711 2782.090774 4348.531283 6016.700181 5472.091120 4343.672724 2956.131275 10904.987138 12189.380744 7366.402048 4839.058551 8055.447057 4228.543225 7108.099528 3738.820089 4414.337748 6733.678066 5029.040304 5279.349238 1604.630101 3583.024845 5944.568727 5511.656279 9331.646119 6918.391497 8941.171834 5582.868585 7635.825358 5426.327111 10150.611153 5053.984190 3506.538980 3467.012026 1259.946840 1223.722756 4468.729259 6922.208333 13375.807029 8620.554142 4746.080634 4979.816763 3603.253047 9536.494584 6704.573147 6660.262152 9365.296565 4736.386326 2118.785051 2316.988359 7834.971912 1375.635786 5413.900608 12264.809310 3999.906445 8698.946989 3488.869858 9583.487501 4222.180405 7285.065991 6102.033830 11481.176595 3238.793161 2749.453295 4581.458821 3302.854440 1876.428336 5946.515535 2457.368752 3417.876179 4237.934879 12286.752515 11598.903011 6623.634275 4429.572705 4260.550814 3304.018866 1976.484102 2864.673404 4369.524059 3431.158136 3623.743792 4041.629163 1887.028535 4034.429526 6845.301553 3767.211558 8668.124508 4324.978588 4222.379155 4242.788592 3252.878285 2116.000651 1753.078146 2243.775703 1623.221836 2710.919897 2155.002959 5654.610464 2237.698123 1749.517370 1758.603020 2996.312631 4097.477545 2671.346590 3061.670710
</DataArray>
<DataArray type="Float64" Name="Velocity" NumberOfComponents="3" format="ascii">