<VTKFile type="PolyData">
<PolyData>
<Piece NumberOfPoints="1945" NumberOfVerts="1945" NumberOfLines="0" NumberOfStrips="0" NumberOfPolys="0">
<PointData>
<DataArray type="Float64" Name="Pressure" format="ascii">
 15455.567200 14557.425823 16130.679859 16080.663119 15371.880760 16217.067060 15609.343238 15593.314066 16766.337309 16517.716244 16278.702300 16503.922818 15406.745027 15530.252561 13959.006371 14762.958898 13606.789577 13528.740748 16962.787585 16917.846801 18630.302576 18535.948184 14540.889420 14066.013546 13280.759333 12671.510660 15449.251555 14680.045570 15337.518631 13261.521640 15431.368825 16494.424944 12870.419376 11536.677562 14098.213921 11766.308694 15120.620126 13994.965805 12981.028035 10785.220653 12686.200799 11934.940693 11844.440240 11409.134994 12622.322362 13391.205889 10421.806491 10565.172217 12945.025822 11317.041079 14274.293626 13316.010693 13043.353313 11826.969958 13484.105409 12758.282501 13887.346878 12989.753932 14923.071461 13330.021751 16560.581693 15012.173802 17586.786255 15435.951272 17688.858846 15541.745063 17940.969380 16733.177163 18561.338955 16799.137207 18750.223656 16632.423481 19487.740315 18626.142396 19385.134875 18413.519026 20368.968325 19759.967591 20264.827425 19904.231187 21045.209725 19649.488096 22908.065775 21650.988402 22800.560779 21862.075103 22607.192097 20914.567607 23177.091363 22986.387529 24799.842548 25070.696970 23509.709268 21796.500511 24195.223066 22446.170387 24868.337977 23972.217245 25940.312453 26187.449770 26651.351310 26179.007635 26102.268551 22975.508770 28459.044146 26789.775842 25565.173043 24401.357961 26936.780360 27387.908134 24699.113510 24040.372297 26305.899313 26165.194200 29619.062371 28716.952327 30716.238543 27908.511305 29310.794626 27432.674671 28361.931931 28089.365879 27309.407005 25028.811226 27285.968075 23985.516031 31038.929600 29076.669433 31990.943778 30160.871387 30454.290602 28949.065603 30660.037754 28776.950607 30272.043314 27585.063984 29985.638783 29677.947632 33173.936293 34129.892162 33630.879550 32186.694657 33099.965307 30040.854293 33978.563578 33357.050193 31505.167212 30184.708546 31535.295083 29702.401342 34151.929380 32881.950844 35787.568035 33006.444697 38026.100103 36800.648374 35468.819298 29754.079215 42556.413736 37879.628184 33096.749354 30186.507203 39445.712798 38670.851817 32815.200773 28699.107869 35225.345850 33739.486142 33074.616712 32655.841997 39433.903272 39951.363973 34775.093169 30072.940125 36361.779239 36292.968944 33390.633090 33490.943033 35538.551772 37519.402259 32681.756282 33978.456002 38187.762395 41115.917457 39920.513610 43239.230240 38371.870212 40724.616736 35942.948995 39065.100405 35568.055200 39050.802388 35684.187620 37316.936076 35477.246193 39371.108179 35521.576898 40569.984583 37243.162791 41511.158570 37935.985182 42558.310836 36708.924833 41728.623561 35502.946514 34743.702907 40026.027305 40142.258230 35232.664326 38017.118371 12987.098838 12894.633705 12191.321400 9932.287765 7559.064970 6219.623317 4395.865386 4585.202980 3688.930544 27.451205 -2010.117413 -936.763969 447.752724 -430.475950 -4963.851517 -5379.486591 -3979.090214 -5777.976463 -9927.503712 -9585.525892 -8543.248331 -8192.289348 -7818.012233 -7434.630791 -7034.074409 -6612.652923 -6171.898204 -5716.767163 -5253.966459 -4790.780553 -4334.315105 -3891.029246 -3466.461908 -3065.090566 -2690.283884 -2344.323298 -2028.475508 -1743.101080 -1487.786021 -1261.484567 -1062.663013 -889.436472 -739.692604 -611.198597 -501.689668 -408.939018 -330.810849 -265.301562 -210.591973 -165.236916 -129.346101 14173.504179 13403.068758 13072.369889 10268.251190 7984.147578 7767.201311 3743.838660 6752.231584 6233.521722 290.296614 -2497.454864 -874.769775 1128.009566 40.990067 -5887.863040 -5808.913994 -3144.741207 -2386.872109 -7384.715751 -9287.443607 -8377.092066 -8140.208134 -7806.377686 -7430.096419 -7030.479126 -6609.549031 -6169.719973 -5715.857826 -5254.463141 -4792.659702 -4337.449781 -3895.232925 -3471.518955 -3070.777203 -2696.382756 -2350.633573 -2034.819585 -1749.328540 -1493.775283 -1267.142640 -1067.923791 -894.257981 -744.053616 -615.094971 -505.130658 -411.943581 -333.402806 -267.495858 -212.323162 -165.927113 -125.210401 38145.980319 39950.969187 37806.445553 36849.342879 36098.272119 33190.875119 29428.772543 31211.738265 32359.650372 27402.389796 26432.124718 27010.502691 29859.393168 40102.973278 44680.790628 34777.433138 20800.190698 -5022.682112 3241.572565 36698.396368 12816.359877 2441.260693 1150.357625 674.894324 458.052350 334.785860 252.773054 193.403645 148.704950 114.449048 87.982483 67.463595 51.543706 39.205359 29.666680 22.319288 16.685793 12.389654 9.133185 6.681079 4.847743 3.487352 2.485911 1.754845 1.225793 0.846368 0.576715 0.386721 0.253733 0.160532 0.092774 37749.844628 36520.586046 31831.487833 29673.177108 27845.246825 25349.315224 23289.815196 22761.046426 21730.008360 19464.077290 18902.624820 18713.792192 19773.736538 22167.126308 25605.100338 30430.617601 31814.943330 28020.382676 22347.446202 14437.188401 6720.522532 2868.556318 1354.800090 754.485949 488.194863 347.152726 258.752466 196.881962 151.029556 116.130788 89.248786 68.436371 52.298841 39.794732 30.127731 22.679961 16.967439 12.608874 9.303062 6.812011 4.948038 3.563657 2.543538 1.798025 1.257874 0.869984 0.593923 0.399122 0.262639 0.167555 0.102927 -105.600370 -94.953073 -99.020278 -89.317970 -81.713473 -76.719565 -62.308819 -61.834326 -48.327933 -48.489655 -37.450558 -37.673279 -28.901727 -29.096138 -22.196633 -22.354932 -16.962474 -17.089045 -12.897984 -12.998340 -9.758599 -9.837662 -7.346677 -7.408596 -5.503484 -5.551696 -4.102358 -4.139681 -3.042879 -3.071608 -2.245938 -2.267926 -1.649603 -1.666338 -1.205695 -1.218360 -0.876959 -0.886492 -0.634766 -0.641901 -0.457245 -0.462557 -0.327790 -0.331722 -0.233863 -0.236758 -0.166057 -0.168178 -0.117353 -0.118898 -0.082544 -0.083663 -0.057788 -0.058595 -0.040268 -0.040847 -0.027930 -0.028343 -0.019284 -0.019577 -0.013253 -0.013460 -0.009067 -0.009212 -0.006175 -0.006277 -0.004187 -0.004257 -0.002826 -0.002875 -0.001899 -0.001933 -0.001271 -0.001294 -0.000846 -0.000862 -0.000561 -0.000572 -0.000371 -0.000378 -0.000244 -0.000249 -0.000160 -0.000163 -0.000104 -0.000106 -0.000068 -0.000069 -0.000044 -0.000045 -0.000028 -0.000029 -0.000018 -0.000018 -0.000012 -0.000012 -0.000007 -0.000008 -0.000005 -0.000005 -0.000003 -0.000003 -0.000002 -0.000002 -0.000001 -0.000001 -0.000001 -0.000001 -0.000000 -0.000000 -0.000000 -0.000000 -0.000000 -0.000000 -0.000000 -0.000000 -0.000000 -0.000000 -0.000000 -0.000000 -0.000000 -0.000000 -0.000000 -0.000000 -0.000000 -0.000000 -0.000000 -0.000000 -0.000000 -0.000000 -0.000000 -0.000000 -0.000000 -0.000000 -0.000000 -0.000000 -0.000000 -0.000000 -0.000000 -0.000000 -0.000000 -0.000000 -0.000000 -0.000000 -0.000000 -0.000000 -0.000000 -0.000000 -0.000000 -0.000000 -0.000001 -0.000001 -0.000001 -0.000001 -0.000002 -0.000002 -0.000003 -0.000003 -0.000005 -0.000005 -0.000008 -0.000008 -0.000013 -0.000013 -0.000020 -0.000021 -0.000032 -0.000033 -0.000051 -0.000051 -0.000078 -0.000079 -0.000119 -0.000121 -0.000179 -0.000181 -0.000264 -0.000267 -0.000382 -0.000386 -0.000543 -0.000548 -0.000754 -0.000760 -0.001020 -0.001026 -0.001336 -0.001340 -0.001676 -0.001675 -0.001979 -0.001969 -0.002123 -0.002095 -0.001879 -0.001821 -0.000855 -0.000746 0.001609 0.001784 0.006605 0.006780 0.016063 0.015580 0.034808 0.028480 0.055538 0.041973 0.065494 0.050199 14496.391525 15440.940263 13590.545373 15552.829901 15009.317449 9358.947679 14971.874746 14346.373395 13958.689639 11898.220401 9238.547053 14166.213774 14447.149257 12703.584102 15250.126673 12022.349747 9219.616085 10759.253086 8959.753856 12033.932199 12979.552956 12336.303830 13427.068948 16284.624308 15762.927367 18624.768177 12811.561711 14565.932844 7332.778403 11355.935050 9486.392890 2104.947177 15342.890005 16553.811838 13657.173639 13925.095577 10490.376888 10917.787395 13003.875188 12459.796205 1253.056680 12867.725820 8188.436178 12227.296196 10831.128310 7604.814526 13702.798191 13936.512656 11888.505915 11458.661945 9408.314877 9993.081115 8442.641835 9601.554792 11612.065062 10558.094646 11043.797669 11155.595796 13180.924503 13307.366538 8808.797700 11727.142133 9518.587110 5616.900720 2654.212222 11345.043532 10989.097190 13043.282397 15863.383190 11076.884356 10359.531912 8378.827325 8023.766979 10566.214308 9286.997884 9405.186494 3072.492394 9981.737694 11834.566020 12922.093958 11484.136151 13088.955504 5412.611691 5129.859811 9950.507133 10612.151548 6266.550685 4204.529442 12409.975289 11761.895753 10824.963733 12131.750206 10659.255968 10031.097245 9806.718355 9569.717572 9078.430488 6433.896600 6829.365156 11737.182467 13617.070026 10803.293033 11220.507128 8271.246850 10614.770959 7347.032167 8489.234786 8923.818025 4434.833215 6983.062739 13038.733354 9054.910934 12011.920972 5684.804174 11560.239690 8969.414779 11100.568137 8648.672962 7661.722999 4275.210455 5420.499350 11645.472613 12548.503377 10421.908343 15243.682924 6074.794420 9988.988086 5886.708372 10165.739624 8707.939155 8544.764399 11104.429112 13472.693444 12186.046611 12343.626418 11134.469226 8456.670773 11614.893103 10900.737020 7891.953444 11335.423379 10723.740253 7413.974490 13319.346758 13136.146084 13792.474469 13665.759001 12257.958901 12428.645028 10558.949831 11738.851577 11275.782789 6007.577069 2460.742583 15398.069847 15908.854664 16272.186203 15498.655638 12983.344531 12945.428905 9349.890990 8633.174961 5898.807534 7372.742191 2105.949347 15193.013246 15687.374459 15710.565333 15509.444364 7297.580834 7907.364375 9714.295354 7488.979926 2467.662246 4153.181683 2581.430906 16163.606507 16893.715157 16091.323038 16550.875929 13770.274241 12238.183197 11923.319188 11581.998089 1684.356733 7.273687 1669.476637 17603.044343 13395.350612 14425.729184 12309.949642 9907.519791 7200.240159 7444.675614 2103.860738 1798.062343 868.712950 1725.518264 17974.205668 16286.908595 15351.957243 14469.131108 13078.563014 7829.055155 7575.528827 4182.788684 6877.938531 4905.836618 -569.537264 18570.947786 19155.921499 17806.916042 12353.308461 11748.191454 9258.958489 6501.348562 5383.362888 1326.078023 1331.572432 1735.272525 19060.191885 17283.745269 17801.025012 15351.538580 11421.156038 6030.235183 8485.992437 1322.389583 2904.774262 1423.498797 1018.274514 19397.491633 16576.568691 17983.228628 13989.995188 12770.708536 255.628191 4685.930282 3302.222133 7536.678194 3400.966236 1356.575470 20682.293397 20292.318510 16348.591282 11951.634177 12272.285832 9291.437399 3791.195809 2765.456524 3249.850210 5558.509304 1123.016798 21172.735496 20359.251784 18122.577056 13839.092595 7410.254808 8918.386112 10466.591909 9703.764603 2566.485659 6079.207399 1403.580133 19370.973191 18136.848506 16128.798020 13543.066949 12637.633408 12568.980468 8235.555166 3544.995384 7550.268981 4602.800385 2904.838860 23065.920189 18342.465656 14735.535577 19933.853683 17292.804073 9117.824010 11562.236689 5315.706972 6626.998581 7918.427593 1952.510644 19151.428760 18654.872719 18356.800047 16374.586507 16599.963506 9929.104093 11757.030510 5163.610456 4940.284669 2070.302748 3694.188798 21457.559304 18377.875771 13076.570697 16110.511945 13985.935325 17724.878675 10585.733135 10388.548238 2203.746914 5712.158993 7718.539727 20907.778091 21343.894623 16200.565971 18081.851038 16555.650671 10689.079359 6400.502192 9234.003629 7600.839830 8129.335250 4781.990093 21204.521630 20700.183595 19547.378485 12585.515201 13271.754399 7725.024999 12846.977026 6083.569708 9677.869427 4020.426290 2128.886856 20673.679122 22643.914216 22532.947315 18411.938193 13509.637110 10216.550267 9479.067351 6881.663426 7532.577496 3275.628109 3942.037783 21688.219707 22090.716862 15251.671733 17898.844681 14821.717059 11921.896365 12949.423637 9489.747186 8510.839350 7331.140797 -420.856833 19849.813343 14174.202555 21034.732737 18144.806151 15466.792199 14701.814780 8284.785831 10377.247523 3730.366754 4516.812901 5212.005557 25157.005736 21770.438250 19062.895055 18430.593051 18140.186861 15020.485387 13444.685387 7556.228621 7976.012204 2648.653107 5882.951119 24829.343420 18909.189365 19532.701416 19165.166790 16990.612070 16284.984272 10506.773613 9369.951840 5455.433982 6423.213045 1930.277807 25003.405876 23427.388185 21230.121771 17549.914591 19742.014644 13394.772869 12929.725791 13691.738936 5807.353063 3576.308805 1696.484236 23433.761360 22723.792132 18400.091659 19746.587078 17625.737458 18723.538433 14082.845733 13270.241196 9133.316494 7919.827161 16054.495334 22194.609630 22306.567377 22509.007383 21548.968989 22585.193517 14548.715812 14245.061949 14381.837755 9497.299656 2440.815857 2359.542934 25673.222794 25643.921432 21708.457363 18602.742828 19247.684959 14322.542824 9082.650204 7730.226345 10783.039082 6569.598067 4498.966652 25261.924474 21407.245193 20151.492572 14667.426873 14510.648589 15679.305274 7823.218195 9147.349147 4559.218619 9425.209898 53948.656166 25416.605731 23614.582710 24120.161832 19583.870853 22030.511187 16304.038977 11924.414205 8725.930497 8430.678636 3240.839912 5020.965113 25496.389376 22976.393342 24584.063245 19076.751946 16863.724578 15638.314258 13869.992440 10186.885820 9096.930039 8251.442482 3911.037980 27229.972081 25551.754619 20694.925314 19813.458797 18519.109126 15440.903676 15031.084095 12616.538461 4248.290008 5307.325499 5953.290063 25294.032546 23756.014477 24027.338325 23872.653548 19911.733606 16888.739088 11325.381647 7960.734275 5342.080125 4667.954347 90919.959435 28763.183291 24760.080291 22322.320301 20050.430597 20490.813170 16057.950530 11308.233149 14237.689605 7179.794981 9824.849173 2053.560641 24999.326104 22359.305861 25652.398826 16146.648380 11843.096366 12897.250647 8948.130483 9488.902412 2910.657276 7285.946468 -838.498684 26395.685292 23978.042367 22618.993822 21487.035570 13176.426058 14652.882190 14292.570176 5073.665197 8580.607441 11219.377581 4535.415120 25094.675672 24979.018006 23123.987744 23244.022069 19617.301131 20100.038827 9860.133037 14739.323677 7604.925613 1950.400055 5577.934689 26210.649325 26373.628151 24289.021342 22087.342353 18334.547056 22172.592318 17453.652841 13312.367198 10124.045248 3418.676661 3971.067466 25988.813452 24001.771232 23906.722634 23152.641577 22291.355405 18825.405645 19303.522782 17966.563936 11536.972076 5286.622818 2031.192207 25438.051913 27634.833380 27683.396270 25484.149053 20849.220914 21335.008558 16497.371471 15091.363041 9811.831711 8416.315856 9117.086888 28949.171114 27939.019333 22702.755243 23941.371167 22355.197187 20613.875999 19747.355867 12212.061065 10345.835070 5564.945984 2170.914870 29026.572265 25773.458969 27252.801526 22853.015838 23695.785593 20082.150094 18071.881146 13318.572722 14255.415217 13971.344374 8298.722866 28427.149620 27070.695637 27365.687413 23916.450204 24011.459416 21006.554162 15522.747983 13073.105057 9219.778526 6314.982365 2758.555974 27709.174509 27234.404008 27219.893210 27425.240780 22679.859692 12321.883267 10888.163375 13075.965442 7044.520485 4671.461884 458.136923 30366.863813 30717.209589 29211.124650 25583.176704 18794.799805 18358.853476 14910.020845 7978.078460 9523.946144 3399.837216 3903.819035 32622.534150 26007.220328 28656.026166 23100.112357 18710.290151 18230.859412 14859.955154 11617.593085 8270.043416 4526.403538 9933.032015 28562.045901 28666.247205 25973.733081 21851.578009 22651.201670 18488.928792 17945.621762 13794.521993 12591.460590 10466.132107 11629.361252 30066.749446 29156.725945 24135.904063 23149.205721 23702.021389 18720.191321 15735.238938 13601.607530 9904.269814 7382.764931 9287.019199 30938.238484 25778.793907 28222.107397 25174.507965 21065.603235 20124.987472 16405.667535 12957.232516 9390.126570 10347.056379 11449.976648 30820.831505 27912.664099 28172.572061 25249.905638 21719.196099 19772.032169 12007.558792 7749.717013 10173.960912 14499.241015 51948.450977 30777.163782 27687.499787 27602.492950 22477.887927 23169.535498 18150.615782 14048.650838 7742.095413 11511.504866 7283.772768 3611.954737 30249.347034 30329.738144 26408.836647 23733.110824 19700.829427 17764.941799 15564.598593 10148.560788 14744.590052 6549.122666 6636.427889 31051.428752 29231.513540 24465.725092 23731.865753 23551.216170 19497.557210 13964.667331 14552.896440 10598.932920 7536.791308 -2189.306444 29184.898446 27608.359333 28531.745877 23132.057515 20608.460432 17722.488669 15863.029591 12288.311760 12864.357718 10055.052469 5964.383729 28147.559911 30441.701552 29861.159345 23151.136973 23302.432784 19604.643206 17154.071946 16727.757472 8728.617133 646.270517 9278.678778 34350.244700 30618.833187 25832.125889 23450.680148 21268.087190 21418.216456 14722.517105 13692.937211 11278.969667 10010.205459 7060.528745 30387.156921 25286.846899 28785.733681 25023.238915 17201.774406 18455.907826 13683.190550 13394.181443 11714.146080 15687.285295 -2370.638748 28859.431114 30585.511621 26815.512228 24744.221545 21421.703273 18560.013855 16648.298164 15723.417488 12458.559220 15411.521063 1960.239727 32966.053057 28189.400289 28569.523892 24620.640002 20490.502578 21125.888520 18201.674173 14553.115979 12791.061977 16026.168566 2434.649236 28378.247691 31146.925424 29128.670535 24575.122906 25330.757364 19278.535679 14669.736054 15994.087510 14105.964699 7473.532531 708.584639 35970.146241 27605.001971 23105.701753 27994.408438 23450.285010 22073.591255 19406.165391 14268.588518 14350.033164 6600.339918 8771.964094 28879.757579 29681.856896 31420.803899 25848.926788 23295.516969 17139.314096 18572.777618 15543.585157 13778.915177 9866.841426 56624.815774 28858.366699 31638.990842 28051.571133 26498.047177 21209.852578 21192.332566 16775.272552 16827.718595 8823.389056 2130.221314 1966.532649 29192.093665 31052.636645 30724.558359 24237.155484 23266.047371 19762.498683 18473.306293 17839.912685 6504.027604 5050.812274 15208.554482 29810.464406 31684.493121 26757.102013 27363.256346 24008.902205 23029.951718 22677.528855 17926.963195 11790.919860 16776.746937 3964.216960 35582.197180 30188.416793 30130.953227 27362.348587 22874.326018 21201.718562 18017.232546 17647.702300 10913.179294 14967.797396 6546.259691 33543.147915 31191.146310 30324.640107 27107.683721 25647.883113 23174.666320 15484.498020 12410.309757 7450.163712 11575.523813 13041.639009 33014.743772 32789.651616 30668.266408 27409.278284 28709.084901 22248.440464 20276.968531 18040.558354 16902.062782 10922.566732 23202.015998 32641.390335 33172.447363 27643.463406 29920.258976 23613.968257 25113.173736 21736.196850 14394.783897 14741.948352 11951.460364 18321.341653 34785.125388 31393.350641 31227.244328 26043.421742 25164.817635 25667.683699 19200.153522 19419.240952 11851.247350 15939.152009 3127.759987 34609.774838 33774.903276 31522.621868 30123.087255 26368.348441 20338.489193 19620.411045 18349.421177 11445.846145 13948.238078 -1605.993300 36467.900623 34714.060005 28658.280979 28453.554168 28084.504101 21116.996997 22215.041002 13869.242220 16563.414071 17615.996139 9337.295019 33757.851206 33734.250115 31490.611047 28983.358019 24776.813908 23049.398235 18729.491609 18472.457572 15294.600210 20153.234865 49835.205288 33373.583365 33758.172281 32234.645758 29279.889789 31306.766619 23094.782890 27276.565244 18687.629128 16520.372601 9036.788390 21764.763029 39173.771787 33233.641417 27954.567367 30432.627658 23268.478073 23933.639538 17257.412504 16419.063429 13130.922126 14662.324382 20342.326603 37505.952347 34728.934160 33117.664779 30209.058255 28028.566637 25363.250369 20773.124722 12309.309779 16559.066001 20239.084313 14803.535335 37371.177134 35531.432567 32132.228183 30006.717277 24019.939786 25800.481121 19647.688223 17276.878129 17468.533185 17855.311093 8143.417396 40860.370482 34808.044392 35734.699060 28040.305315 27514.953350 22472.471328 18570.632027 18694.228241 18936.278322 13565.946063 12952.366243 39045.612354 37130.250391 35499.579627 29691.748612 25819.419647 24085.373889 21691.088827 16642.172448 17332.674533 13146.419533 -8861.012919 39714.507671 34465.758901 35640.942570 29957.068703 29572.285609 28957.967933 22158.222103 19072.991456 15421.818038 16406.817831 46428.025750 35885.928845 36430.695269 29132.147742 36251.576776 26780.265501 27088.936809 23645.501554 22182.040111 21995.405004 18518.364644 28800.615917 36161.927692 29743.112875 37629.933009 32417.899352 32528.787702 21014.502252 22257.192404 22780.127427 21467.630897 18412.747139 26125.291560 39007.717369 37533.296976 37319.767636 30722.536640 26210.660156 27579.943128 25733.826315 22813.801400 20665.892093 17526.604519 34930.204029 41351.174977 32303.627841 38342.995219 27971.267375 31260.453446 28178.805763 24825.674282 21484.891572 21574.055758 22609.134266 45888.886481 37888.500658 37291.587755 37114.087315 30900.338821 32157.174897 30045.170515 22822.148589 26000.436722 18211.687586 33084.836814 70497.057063 39683.030890 37436.626617 29421.294905 30193.599572 31185.138446 21997.734408 29930.819857 22051.601432 24346.589650 34417.031322 50028.117124 35910.690234 43733.821389 36467.103780 36540.485293 23746.882110 30999.333290 24709.090420 24145.803770 20129.083141 26231.832309 41271.035624 36106.218266 35320.861543 34528.955824 33179.703838 34228.697122 25335.449491 27757.429173 26082.172211 22676.334522 29252.416649 79679.465193 36671.962877 35223.743114 37716.605403 38247.361469 25864.717903 33596.178538 24051.430019 22240.454853 21842.686954 28753.565429 123502.553541 38182.168328 36286.825985 30031.400226 37988.409312 30005.526526 29137.648197 36509.690594 36096.077106 26675.657970 35661.896142 30981.534577 7438.452105 13933.719067 13662.920053 9527.567319 7670.489082 12578.024941 11295.328277 7844.259326 9566.705101 9506.908046 2584.398324 4505.254668 -2075.792119 -12305.331170 11129.443977 5020.342494 13347.266955 10494.188558 8535.667966 11058.596136 8657.771816 1491.479648 10202.605904 7674.415953 2401.894352 2520.164287 5561.855970 -389.584378 6276.104363 8505.865545 7389.516672 7986.475037 8608.301589 6090.836756 5628.796512 7490.768860 8696.344718 5860.340198 -1132.428744 2480.831807 6676.540451 3384.576947 9379.990091 6324.806237 7460.147821 8506.474059 3886.772107 6376.405927 8883.868081 4231.587007 6135.802583 6488.771555 6004.121518 3020.016449 8961.050692 8597.586956 7239.819465 9926.592215 7389.951484 2799.483996 8555.971977 6113.722629 6453.076067 6774.853593 6530.891712 5239.608275 6631.515914 2017.308034 8501.765345 15851.950984 8281.526078 6296.404290 4140.194034 12602.662814 7237.662469 5558.279413 5661.818411 3760.031605 3358.318305 6025.281270 3600.715685 -980.551850 9085.022614 -4370.610220 9389.864866 3288.974061 5388.197181 4113.997408 195.724635 4942.178578 7243.973217 3684.485473 4385.157928 4797.655983 3921.855188 4253.947446 3688.474022 -192.804877 4937.383512 8584.578960 4303.500817 7058.178110 5877.344620 6355.305497 6106.446859 4813.301529 116.018606 2914.642744 3832.846697 3226.241176 3838.455955 -3061.668040 8251.510131 7142.529914 2954.306110 3069.442772 6617.080248 3574.709510 2711.849974 2064.359089 2369.389606 4715.781403 2997.116503 2510.368774 643.218993 -1232.203154 5987.993568 5883.645102 7205.672506 1666.736953 6130.953396 341.202626 4839.539786 4353.940152 5074.637468 2269.645519 1644.964412 863.245274 786.612879 3959.005730 989.772582 6338.059346 10586.707408 5259.624448 4058.859291 2812.917297 5188.869540 5123.388669 5278.667847 3583.303119 4151.081802 3588.643618 3163.470916 8159.148948 9890.333045 200.882744 6821.867462 11661.814755 5879.494859 5744.545839 1445.091065 6754.778259 5164.976759 4691.588096 1160.332561 3412.404317 381.019112 1997.257108 5700.046790 1561.626980 1607.331879 3666.955594 1720.912708 2591.957402 3770.419196 7302.037993 9728.681794 8899.704976 3347.445007 3238.774371 1811.801810 1051.625185 1463.618331 4755.985068 4200.070842 2334.745418 4621.164972 1301.544861 3764.238129 4075.107098 3097.411761 7171.769183 2655.740916 458.545982 366.136896 587.702732 716.376750 3053.941491 3543.144497 2850.906399 1032.434951 859.347981 6577.511390 674.026320 1523.256089 1088.013266 658.928338 2263.007566 1195.433773 1341.726667
</DataArray>
<DataArray type="Float64" Name="Velocity" NumberOfComponents="3" format="ascii">