<VTKFile type="PolyData">
<PolyData>
<Piece NumberOfPoints="1945" NumberOfVerts="1945" NumberOfLines="0" NumberOfStrips="0" NumberOfPolys="0">
<PointData>
<DataArray type="Float64" Name="Pressure" format="ascii">
 14529.105616 18816.270139 18931.245618 31684.696704 20676.870192 31879.093595 21359.317959 30814.329693 22275.014262 32908.979518 23655.197810 32896.172618 25964.772632 35628.920337 26309.942601 34897.760248 26914.524390 34138.838857 28361.215657 32823.058642 31725.924032 38591.587317 30195.166607 35188.734368 29462.351668 31567.441753 30388.167172 32462.967037 29306.983174 31898.855763 29930.940678 33260.874822 29218.665063 33071.567520 29391.799775 34650.980788 29241.221612 35430.717597 28803.614243 34304.859289 28506.637443 32855.613209 28397.287359 31640.783824 28912.084200 31776.441169 29461.966825 32647.990071 29917.465852 33482.536415 29889.936078 33385.844012 29447.450938 32159.776300 28847.131612 30106.919338 28440.846573 28120.924115 28359.741147 26899.809153 28414.426858 26040.013791 28437.327276 25163.084720 28466.188135 24337.764613 28528.732010 23487.695503 28693.858707 22854.866743 29026.955748 22284.592904 29465.176622 22295.229405 29965.377118 22615.541578 30470.731499 23137.382271 30935.077605 23692.320972 31356.746575 24185.556968 31750.332675 24570.469241 32152.729989 24866.634857 32594.655137 25139.395566 33090.330651 25467.534971 33633.974210 25911.883014 34198.365445 26486.568588 34747.139601 27169.799440 35246.375026 27915.641731 35665.310024 28669.671301 35976.868514 29358.954748 36172.591131 29918.932933 36261.191947 30365.827713 36239.840849 30725.135134 36102.959537 30940.467050 35877.816087 31003.054218 35585.748806 30917.851719 35248.599262 30695.932982 34881.162600 30438.840794 34505.681341 30136.638812 34135.308969 29813.715462 33781.472532 29494.053023 33452.894063 29194.750705 33154.311031 28924.937018 32887.539619 28689.665177 32651.482513 28484.980476 32442.994038 28306.729736 32256.939362 28148.879359 32088.722222 28007.212952 31934.319244 27884.328276 31790.974286 27780.246618 31659.256049 27702.762255 31539.329003 27653.124596 31432.540893 27628.789164 31339.943870 27664.632176 31264.314866 27702.505184 31202.431548 27764.438165 31159.614341 27859.912602 31142.444670 27995.961909 31144.803876 28141.214055 31161.061061 28273.419877 31186.043499 28405.122442 31214.776021 28509.401403 31253.103735 28596.158133 31285.753622 28704.575205 31306.072470 28797.607976 31327.288984 28987.961252 31322.872307 29146.274587 31374.697066 29501.207758 31434.437623 29853.440211 31560.065336 30310.544408 31730.376110 31036.429094 31912.644440 31287.733267 32287.870251 32669.790521 32469.216612 32277.973898 33289.362451 34563.822605 33961.827866 34336.880588 35280.102309 34774.608599 39747.837786 38312.063878 42325.331463 39755.983869 46659.200142 46010.077415 46002.894262 42448.879635 52249.681856 42643.154509 54730.463483 57517.520637 36529.918950 41745.896219 21467.010130 19955.934003 16218.910896 16060.843798 15437.928813 15144.700047 13897.542062 12739.407064 11891.664409 11319.152836 10707.343841 10027.954187 9353.283730 8739.364268 7896.371638 6484.738157 5482.347469 4283.769958 4494.017707 -365.985131 926.054045 1857.130265 -5775.100921 -6383.113269 -4974.518068 -4100.421910 -3389.003990 -2768.790802 -2225.932014 -1753.343583 -1348.141908 -1009.224822 -734.557337 -519.622493 -357.371912 -239.144022 -155.863942 -99.052330 -61.448536 -37.253655 -22.095107 -12.832884 -7.305583 -4.080001 -2.237097 -1.205155 -0.638267 -0.332420 -0.170071 -0.084948 -0.041076 37186.381532 33153.425806 24355.858925 26114.901446 21035.435500 20452.676905 15618.689462 12863.611039 11675.396968 10897.613011 9509.271178 8998.332535 8001.924690 7123.809718 6311.814685 3861.551796 3737.863646 1484.226915 6409.540078 -9323.092742 -4423.216715 3892.336908 -7357.289374 -7056.154150 -4712.201846 -4073.229170 -3398.197835 -2783.773801 -2240.799002 -1767.531906 -1361.843023 -1022.363033 -746.760635 -530.450633 -366.511169 -246.488161 -161.499974 -103.198108 -64.382192 -39.257273 -23.419713 -13.682700 -7.835838 -4.402402 -2.428427 -1.316141 -0.701269 -0.367435 -0.189058 -0.094504 -0.042498 38380.925296 35731.341905 35396.588433 30203.580570 23348.561571 22884.866897 21302.641854 14703.523195 10126.937950 15701.173218 6600.869243 370.896188 -498.445456 -555.160029 -392.386055 -220.441053 -101.412667 -36.508990 -8.617150 -0.582268 -0.743715 -2.882413 -4.471150 -4.953182 -4.573455 -3.752055 -2.826615 -1.993699 -1.333141 -0.852417 -0.524434 -0.311909 -0.179989 -0.101066 -0.055352 -0.029627 -0.015524 -0.007974 -0.004020 -0.001992 -0.000970 -0.000465 -0.000220 -0.000102 -0.000047 -0.000021 -0.000010 -0.000004 -0.000002 -0.000001 -0.000000 36292.201753 33332.710309 31467.406033 27984.805897 24060.116221 21258.107487 18105.141936 13789.796966 10615.049976 8107.620452 3039.148237 556.070414 -336.564909 -489.010583 -378.034201 -226.038036 -111.089958 -44.265854 -13.280162 -2.793929 -1.491026 -2.942600 -4.308215 -4.784994 -4.470548 -3.715301 -2.833921 -2.022292 -1.367116 -0.883185 -0.548695 -0.329394 -0.191787 -0.108624 -0.059992 -0.032373 -0.017097 -0.008851 -0.004496 -0.002244 -0.001101 -0.000532 -0.000253 -0.000119 -0.000055 -0.000025 -0.000011 -0.000005 -0.000002 -0.000001 -0.000000 -0.020933 -0.012769 -0.019209 -0.012033 -0.011749 -0.008592 -0.005182 -0.004947 -0.002474 -0.002541 -0.001197 -0.001261 -0.000578 -0.000615 -0.000278 -0.000296 -0.000132 -0.000142 -0.000063 -0.000067 -0.000029 -0.000031 -0.000014 -0.000015 -0.000006 -0.000007 -0.000003 -0.000003 -0.000001 -0.000001 -0.000001 -0.000001 -0.000000 -0.000000 -0.000000 -0.000000 -0.000000 -0.000000 -0.000000 -0.000000 -0.000000 -0.000000 -0.000000 -0.000000 -0.000000 -0.000000 -0.000000 -0.000000 -0.000000 -0.000000 -0.000000 -0.000000 -0.000000 -0.000000 0.000000 0.000000 0.000000 0.000000 0.000000 0.000000 0.000000 0.000000 0.000000 0.000000 0.000000 0.000000 0.000000 0.000000 0.000000 0.000000 0.000000 0.000000 0.000000 0.000000 0.000000 0.000000 0.000000 0.000000 0.000000 0.000000 0.000000 0.000000 0.000000 0.000000 0.000000 0.000000 0.000000 0.000000 0.000000 0.000000 0.000000 0.000000 0.000000 0.000000 0.000000 0.000000 0.000000 0.000000 0.000000 0.000000 0.000000 0.000000 0.000000 0.000000 0.000000 0.000000 0.000000 0.000000 0.000000 0.000000 0.000000 0.000000 0.000000 0.000000 0.000000 0.000000 0.000000 0.000000 0.000000 0.000000 0.000000 0.000000 0.000000 0.000000 0.000000 0.000000 0.000000 0.000000 0.000000 0.000000 0.000000 0.000000 0.000000 0.000000 0.000000 0.000000 0.000000 0.000000 0.000000 0.000000 0.000000 0.000000 0.000000 0.000000 0.000000 0.000000 0.000000 0.000000 0.000000 0.000000 0.000000 0.000000 0.000000 0.000000 0.000000 0.000000 0.000000 0.000000 0.000000 0.000000 0.000000 0.000000 0.000000 0.000000 0.000000 0.000000 0.000000 0.000000 0.000000 0.000000 0.000000 0.000000 0.000000 0.000000 0.000000 0.000000 0.000000 0.000000 0.000000 0.000000 0.000000 0.000000 0.000000 0.000000 0.000000 0.000000 0.000000 0.000000 0.000000 0.000000 0.000000 0.000000 0.000000 0.000000 0.000000 0.000000 0.000000 0.000000 -0.000000 -0.000000 -0.000000 -0.000000 -0.000000 -0.000000 -0.000000 -0.000000 -0.000000 -0.000000 -0.000000 -0.000000 35292.619450 26713.259536 32301.811707 26779.046622 28612.013444 24779.224066 24657.180374 21207.920068 19899.826075 17249.678067 16240.675721 40143.071761 35582.452129 32788.514881 30596.041245 23693.361097 25419.385736 21459.192887 21661.769442 18469.790093 17674.760485 15911.950076 30836.551078 28986.174955 29125.851139 27027.188797 27036.554868 24125.837291 22699.626717 22271.938141 21244.300173 18343.013550 16850.674656 33875.223276 35633.971753 28748.231332 31343.076781 25593.959194 26374.295781 25162.238457 22501.942092 19968.119894 18606.448732 17635.930016 32708.149276 30689.092568 30648.787213 27866.645116 27754.771754 26491.551826 23629.210815 20168.972132 19998.285159 18781.500656 16751.641913 29549.397833 31461.759304 28480.949404 27433.597465 25527.464787 24986.328133 25513.567878 23416.757467 21242.469285 17975.453521 16950.801662 35231.907220 28864.744853 29718.434375 28439.902914 27283.362342 25343.798778 21679.884637 20947.578605 20445.100960 19764.081493 18104.916666 30458.249809 29449.283359 31602.189648 29932.080844 24890.399125 24439.159507 25193.740791 23797.726889 21389.199065 18985.198760 17564.700144 30286.219441 30075.643554 30007.646536 26273.665056 27563.356916 28316.052067 24320.347534 20753.565135 21668.444120 21738.904944 20425.516357 31137.779338 31200.498993 29470.137666 30448.995268 29703.074451 23898.819722 23993.156582 26372.526272 24167.956220 19296.804989 21610.407047 31104.884468 30414.644275 32268.017672 29887.458621 25472.094126 27660.979543 29074.152670 20739.015115 22471.171672 25101.356636 19767.428559 31886.351508 32327.714874 31505.357441 27555.850413 30192.616911 28705.951992 20345.972302 23190.094631 22364.852776 16516.700228 21178.267607 33923.144061 31558.435217 30646.108238 29962.482252 29562.469110 22729.196769 27195.996745 22960.383692 16636.383842 18160.302808 17524.157881 33838.502918 31418.049317 31900.004754 29393.764474 24923.316770 24956.271733 25163.038095 16409.202269 19551.638854 16377.149608 17585.064844 33373.452161 31863.528517 30924.840309 27182.137463 27105.273991 25014.983775 18513.472029 19077.682105 24945.428677 10711.058241 30000.374740 33339.579580 32711.060848 28550.608047 28008.165940 25564.473833 21924.825243 22800.212724 17271.827889 17193.070323 4930.637947 -5325.659345 33874.855216 31404.991216 27624.243390 30017.065833 20296.054094 24824.710911 17654.977604 18725.944593 8145.197804 16835.518686 7210.157141 34348.875433 30284.250717 29235.787320 27850.418685 20534.681788 24372.456940 14760.138889 22892.065945 11259.689566 5899.566254 11566.437717 33942.451313 29776.119755 31236.317723 24687.700693 25600.043344 19224.691034 22918.006191 5644.013604 19147.675790 13290.637793 12557.274306 33247.522967 30219.987325 31104.967009 24007.974121 27099.895214 15775.319536 19805.088301 18384.196354 8844.324077 -2553.158326 1395.800254 32917.757307 30973.553056 29648.205008 25062.530916 24071.276002 20472.664798 12887.553094 20504.409723 9107.963969 -4045.245329 12077.905763 32818.731367 30960.151811 28644.649210 25836.344964 21630.520022 21600.995650 11695.820061 18675.981702 8151.435722 9078.567480 -4131.019915 32559.585731 30331.295070 28259.832235 25571.240769 22270.634671 18849.067471 17106.581008 13088.830978 13011.190834 8006.096303 -983.906130 31373.525905 29381.336497 27937.197439 24679.443519 23098.053333 17374.354031 18306.747884 9280.837642 13064.908383 5818.891317 5167.957434 29528.268751 28281.839254 27259.628619 24317.373902 22071.105629 18714.801282 16044.695604 13375.874138 12009.710678 8845.467610 7230.563459 28082.876700 27376.397457 26277.087505 24108.257995 20862.017912 19559.608567 14395.706511 15621.947756 6206.336895 11491.481193 5506.996289 27255.161459 26539.698630 25197.300687 23487.549106 20236.259853 19299.537806 14252.792010 15356.367075 5080.459085 11741.618925 9004.692868 26631.501100 25709.687125 23941.405006 22672.821894 19615.831095 18637.930929 15078.882685 13909.231450 8856.480493 8633.259966 14953.426507 25903.282731 25005.080255 22637.153342 21899.747186 19008.615600 17794.700689 15436.986164 12183.639204 12076.514738 4634.094328 19083.690997 24902.636908 24407.476190 21551.002902 21209.241269 18496.342883 16868.063078 15347.942469 11307.537199 13289.570766 2198.691888 21900.663341 23511.628407 23852.698449 20774.149291 20469.336287 17964.426558 15944.495883 14870.428885 10921.931413 12818.853080 2214.099224 21710.152455 22213.997033 23349.756547 20224.312896 19631.350315 17441.593777 15108.290770 14311.688526 10563.194480 11749.902849 3397.353202 16754.310278 21266.477953 23007.520183 19790.906682 18775.201258 17018.618907 14274.523444 13588.532007 9918.995214 10224.170207 4129.312795 10770.349991 20840.401923 22758.809419 19493.310022 17968.252108 16529.823310 13297.053642 12593.139209 9034.192038 8585.276980 4272.199625 6319.590418 20673.960846 22507.950336 19301.518618 17298.939433 15895.503229 12224.166938 11548.182748 7897.082451 7097.376977 3863.648777 3607.240546 20784.422720 22347.297233 19186.045793 16800.051056 15292.116754 11367.354392 10682.943706 7014.989116 5916.903843 3233.646848 1982.249503 21117.566961 22363.769263 19213.588034 16526.989920 14855.928015 10870.663525 9860.008716 6326.760085 4786.719757 2584.488538 1081.868020 21602.360909 22582.641442 19429.664466 16567.674013 14715.204739 10702.076413 9426.034553 6093.938637 4185.906902 2315.458044 706.489533 22194.487140 23001.137446 19812.606990 16904.599295 14936.475516 10946.674750 9442.556066 6260.251896 4218.196452 2410.897647 672.580869 22823.945940 23566.131533 20337.525122 17447.084621 15414.488841 11487.262581 9833.711871 6857.242508 4407.871936 2635.438243 752.386535 23430.413785 24199.947416 20948.566860 18100.268888 16036.564478 12168.206106 10335.924856 7459.999101 4714.774273 2957.008533 838.958743 23985.459557 24832.829019 21581.656420 18773.354371 16695.533665 12887.340247 10869.452899 8045.228175 5042.509162 3145.198439 952.149301 24520.195908 25438.737502 22213.730616 19404.685612 17309.167924 13538.415509 11329.540428 8535.714835 5329.711435 3299.287118 1058.982311 25078.468894 26024.039376 22837.157836 19989.953025 17869.421839 14102.799442 11706.009738 8919.058461 5536.480346 3381.036679 1135.798053 25698.551021 26616.601743 23472.074534 20551.609983 18389.960581 14610.507285 12046.608106 9254.059350 5714.286001 3438.365140 1209.290509 26395.315150 27238.425625 24136.888138 21113.557979 18902.732515 15106.801063 12393.634054 9586.633397 5903.531256 3509.922145 1298.488131 27147.374226 27870.202137 24825.555034 21700.251111 19439.710140 15616.847840 12770.280067 9945.696876 6125.388860 3613.334880 1408.829338 27937.221090 28508.879312 25502.346484 22297.773070 19999.402457 16138.174422 13176.279286 10333.249394 6378.799189 3748.125494 1535.321835 28705.972074 29149.542694 26148.802445 22870.806829 20551.320870 16652.505743 13589.659643 10725.422691 6643.942236 3899.577523 1665.893359 29349.796658 29721.866199 26751.578001 23389.183194 21054.079207 17129.925560 13975.101454 11088.445167 6894.821714 4047.841877 1787.025858 29864.570182 30155.292141 27262.467960 23827.416744 21472.393092 17538.019915 14298.212807 11392.920774 7108.331237 4174.991109 1887.910963 30313.915567 30463.881290 27652.655930 24163.312226 21781.913235 17853.351302 14535.547003 11619.967546 7268.945471 4269.175220 1962.327811 30657.376329 30660.779316 27912.067957 24379.520557 21972.264384 18065.697021 14677.707179 11762.525012 7370.300003 4325.825645 2008.611010 30825.408816 30718.798800 28036.323459 24478.335236 22045.178487 18174.232973 14728.159593 11824.265587 7414.115873 4346.469686 2028.616099 30835.065198 30649.558807 28034.344343 24470.222780 22012.393534 18187.607795 14698.497777 11816.195946 7407.839042 4336.672660 2026.489068 30733.106291 30482.197747 27924.863837 24367.272933 21894.146418 18121.820264 14603.533316 11752.944454 7362.056542 4304.051050 2007.576354 30526.232525 30237.238468 27734.635793 24188.514049 21711.527749 17994.072322 14459.411694 11650.020644 7288.057483 4256.635275 1977.532595 30263.050789 29942.762703 27488.698419 23953.243022 21483.511735 17820.921731 14282.180795 11521.573241 7196.065084 4201.682100 1941.579293 29960.242444 29621.029531 27207.442338 23679.303352 21228.096560 17617.463356 14085.754402 11379.070079 7094.325478 4144.870778 1903.906257 29640.675520 29288.789010 26907.568578 23384.534049 20961.534287 17395.815694 13881.183528 11231.006043 6988.736318 4089.862943 1867.289884 29320.334535 28957.841699 26605.643598 23086.878028 20696.089270 17165.156706 13677.097487 11082.814239 6882.878986 4038.339354 1833.005277 29011.113546 28640.254432 26314.051949 22796.830130 20439.470854 16934.011794 13480.006599 10936.925841 6778.438316 3990.382012 1801.017292 28723.109053 28345.694106 26038.478075 22519.596049 20196.875155 16709.331575 13293.987168 10794.012470 6676.057337 3944.980625 1770.341882 28454.692846 28075.870971 25785.483044 22264.685758 19972.953591 16494.295423 13120.330162 10654.219389 6576.206451 3900.718000 1739.558392 28207.304807 27832.235693 25553.373047 22034.151426 19771.277074 16292.934416 12959.717384 10517.479675 6479.405877 3856.379835 1707.413439 27983.628416 27621.863769 25343.354461 21825.366503 19590.276704 16109.076195 12813.938735 10384.711901 6386.739110 3811.396731 1673.230062 27785.524677 27445.262934 25158.953712 21644.246514 19430.269115 15944.173461 12684.065800 10257.872728 6300.361337 3766.418361 1637.193574 27619.533453 27299.404876 24994.195739 21491.399410 19293.459180 15801.146712 12572.265325 10140.020446 6222.966255 3723.323265 1600.689288 27484.099617 27181.016317 24852.034914 21368.425970 19180.260371 15681.536439 12481.235595 10035.884834 6157.958482 3684.799312 1566.213541 27384.326835 27087.726932 24732.294770 21277.159536 19093.200372 15588.348267 12414.052684 9950.077240 6109.268547 3654.392651 1536.891140 27317.615289 27023.457618 24644.122197 21217.575351 19031.150515 15524.117050 12375.491049 9887.468260 6080.195419 3635.887840 1516.160746 27277.524978 26987.691959 24596.165610 21190.747256 18996.123006 15492.228960 12367.180533 9852.785049 6073.496785 3631.883247 1507.164143 27271.226807 26971.342271 24576.268127 21198.928431 18993.453058 15497.141630 12388.875750 9848.465922 6091.439168 3643.574790 1511.971653 27315.276950 26997.933115 24592.217278 21238.634026 19026.616441 15539.809527 12441.258752 9875.193895 6133.971465 3670.465280 1531.321422 27379.238277 27067.586301 24651.487913 21303.449665 19091.195909 15615.628697 12521.513142 9931.644547 6198.723714 3710.146651 1563.938795 27468.598858 27159.079155 24747.974424 21404.722744 19185.049191 15721.624851 12628.164587 10013.765005 6281.803333 3760.195014 1607.090072 27593.949612 27262.161418 24860.972022 21529.008538 19298.035049 15847.481168 12756.664508 10116.531450 6377.069558 3816.304812 1658.110202 27731.584149 27390.117886 24991.786197 21668.140091 19429.785454 15987.353423 12895.429477 10233.486464 6481.597526 3873.661578 1713.263867 27858.849780 27525.985336 25130.266636 21822.101190 19581.226032 16144.465497 13045.348621 10357.881987 6593.325300 3932.141950 1768.876188 28016.173059 27688.530438 25259.615715 21972.609604 19727.382701 16296.048732 13196.260153 10483.598286 6704.881859 3990.360498 1823.690617 28149.723364 27862.230755 25405.005833 22156.030717 19902.376763 16471.111417 13362.325047 10621.663144 6821.608594 4048.749544 1878.151410 28252.894427 28001.178208 25519.371866 22328.983703 20064.514856 16638.604444 13521.850862 10755.478459 6943.160433 4109.809266 1933.527209 28463.068600 28241.280922 25697.943013 22545.410199 20254.224678 16849.810730 13720.326969 10908.813237 7076.297045 4177.476089 1989.281332 28619.009892 28387.497402 25851.712336 22786.412281 20452.975032 17066.062117 13924.279174 11079.212922 7227.038063 4262.113837 2052.380468 28981.209163 28674.687822 26119.690384 23095.701019 20689.581166 17329.323125 14160.500970 11273.894206 7386.325350 4347.918001 2125.360564 29263.911227 28901.951977 26369.478543 23448.626758 20990.021264 17672.563537 14464.293493 11532.117790 7603.406599 4463.625088 2206.790930 29864.636672 29315.842661 26790.043514 23894.123224 21310.483437 18015.512712 14740.696378 11763.620081 7804.529853 4588.552191 2317.544871 30302.596606 29681.266776 27187.927598 24373.051448 21735.830808 18511.700062 15181.506213 12140.005993 8065.515070 4691.646060 2403.033082 30989.027376 30127.739650 27758.714628 24935.291831 22191.065853 18984.899125 15500.320731 12448.463745 8396.110666 4937.074085 2559.246662 31885.016246 30900.142864 28507.565771 25585.794931 22637.496315 19502.581536 15994.596383 12821.879411 8512.330562 4882.785530 2682.299189 32029.252631 30736.771037 28639.303252 25995.996004 23293.603687 20149.550817 16384.575150 13326.261898 9219.222251 5360.606696 2751.520060 34226.463005 32924.594715 30531.847101 27065.500700 23641.168818 20600.448040 16919.254000 13459.773619 8780.505223 5209.027288 3061.141404 32879.389806 31049.429909 29277.234531 27042.606254 24271.041478 21220.014942 16825.653934 14588.192790 10190.313835 5307.590776 3175.112781 36623.860114 35372.517122 32957.786351 28958.749783 24986.714833 22386.392042 18178.831076 13419.577930 9716.111571 5836.462296 3115.619794 34650.257449 31722.761791 29837.208742 28116.397228 25234.938218 21584.110946 18141.091486 15728.230263 9863.203489 5979.033519 3670.504590 38031.291102 39288.204093 33682.465100 32186.308631 25980.003092 24749.338869 18643.314912 15583.690778 11028.820232 5237.783121 4117.789872 34741.571829 36604.075931 30994.291864 32206.112375 26388.371240 21874.885021 20340.143121 14522.592161 11611.048009 6297.632640 3973.982695 34446.296675 40047.942674 33918.575301 35247.397193 30541.217254 26313.751593 19383.327649 17369.539950 11903.592408 6703.695557 4547.389768 44359.499149 40057.197607 40630.249054 32139.985660 27516.909864 25631.414513 20011.988168 18111.350657 11012.642065 6781.925948 4889.700115 39045.905474 39149.175784 33753.860466 33927.365447 27817.166005 27999.651548 19458.740303 17098.219628 14194.375360 7901.239753 4329.096301 47207.705055 36180.966505 32507.969770 32817.284976 29322.842633 26773.136781 21809.648753 18647.453474 12966.962970 9208.774648 7348.774879 14364.561040 13133.236193 11980.944644 10926.511725 9996.485021 8857.916977 7362.642523 5747.666828 4498.798058 4043.147999 2409.120223 1058.515516 823.685337 -538.207703 14789.927265 12985.781828 11877.185496 10517.765421 9195.171285 8005.622315 7184.262990 6553.439425 5375.015937 4459.694168 2927.076061 3748.226002 -1310.193460 895.410023 15158.237255 13480.209168 12115.015395 10769.039069 9696.700195 8853.758702 7885.841766 6596.393402 5286.704082 4335.075316 3040.584579 1702.160708 1221.583709 546.699933 15651.084041 14070.771436 12554.894527 11214.505417 9913.684652 8635.093257 7677.359854 6701.662190 5930.344531 4371.802534 3719.056954 2948.828936 972.452934 511.407113 15168.020871 13421.024282 12075.675385 10788.635227 9787.750204 8758.338518 8156.834648 7043.799329 5990.191332 5674.320884 4215.605853 2928.645449 1811.359002 776.220446 15265.350327 14348.111715 13085.847809 11690.384564 10478.628791 9345.708176 8335.916836 7642.246894 6655.768515 5217.266500 4374.573698 3128.064237 1378.349239 672.946424 16305.060830 14408.924109 12567.537190 11606.700907 10519.929626 9410.188602 8520.070894 7085.169934 6006.710932 5423.313804 4415.677129 3192.753229 1733.161859 807.722249 16635.656095 16473.767413 15426.129172 13799.969778 12040.273520 10301.151860 8734.450980 7395.736681 6070.008186 4797.425713 3889.504665 2778.188883 1130.389861 529.436317 18252.622300 16019.057637 14332.321425 13487.813171 12714.915178 11185.213017 9359.518699 7390.967594 5490.106224 4124.798651 3343.596638 2611.685589 1022.920398 355.458299 21954.438133 19724.085079 18183.052003 16939.795587 14254.357667 12041.821235 10585.071373 8785.967122 6357.489467 4517.664477 3326.681632 2356.779438 560.847714 194.372657 15173.425038 21095.422328 19470.330657 16443.800459 16029.685406 15966.508161 13624.986513 10025.318717 7065.723589 4728.611808 3536.397645 2852.181680 507.159751 137.238949 21402.292831 11862.076264 14807.279040 17188.973442 15758.823568 13356.597995 11313.758941 10527.597001 10149.933188 8044.166381 6581.334512 3757.913372 398.042054 386.715428 21238.789771 10000.151821 8997.353851 14571.564401 11532.541607 8727.732626 8447.822815 9525.428104 9418.964828 8121.475468 6423.691148 1499.882129 1519.801860 666.477088 2403.274969 7906.937347 -662.123470 19520.640675 19163.428540 14374.730473 10047.017973 17176.435547 14282.995558 9775.744168 6136.979545 3451.201002 3420.572895 2030.354864 -15013.819989 1350.042746 12044.505781 -1418.980403 1158.851881 -1179.944442 -4689.386499 -336.263726 3197.227675 785.257215 189.789692 3448.628026 3484.248798 2839.719331
</DataArray>
<DataArray type="Float64" Name="Velocity" NumberOfComponents="3" format="ascii">