<VTKFile type="PolyData">
<PolyData>
<Piece NumberOfPoints="1945" NumberOfVerts="1945" NumberOfLines="0" NumberOfStrips="0" NumberOfPolys="0">
<PointData>
<DataArray type="Float64" Name="Pressure" format="ascii">
 24598.110033 24582.471247 24990.696206 23957.237658 23769.462549 22756.731628 23158.248453 22103.421150 22876.721194 22403.627353 23243.690627 23604.106087 23124.562996 23566.980487 23720.099971 22799.532584 25421.092886 24163.409756 25567.849656 24392.635678 26459.213980 25538.808123 26040.838592 24751.747920 26279.227937 25044.155004 24337.744610 24033.828912 24715.377919 24334.725919 23017.983782 23047.565901 23865.229485 23818.677341 23421.526586 23358.827147 23108.995617 23272.779076 23812.844503 24086.607714 21744.927273 22678.062831 22094.601656 22862.606733 20626.862293 20556.350150 24186.267244 25156.296614 19840.770167 21182.601766 21470.622483 22774.094950 18333.472294 19674.053074 22136.636781 21495.492163 23123.807486 22727.317338 21616.312002 22613.955454 19349.786002 19540.410040 25936.505367 24364.906935 23310.846519 21982.399558 23611.872135 22437.554066 22317.700821 21559.755017 25604.563711 23485.538990 19096.130440 18693.449738 19566.091771 17401.988839 25371.883455 24431.617532 19430.993912 19706.219099 22242.740265 22226.665009 19468.319099 17580.914099 22891.165535 21420.419621 18951.225041 18934.819562 21543.547647 22783.690275 18986.424595 18565.026909 24480.346218 25184.309075 18724.061334 19404.702822 25348.850109 27259.291069 19750.307806 19951.811443 23733.405240 23718.904624 20843.634783 19752.216363 22586.125418 23756.700253 19206.252293 20348.550959 20327.072992 22988.411997 17586.573810 18495.767475 21796.278232 23474.976091 19463.147209 19180.858460 22805.631776 22105.762096 19946.412209 18105.291580 21228.661264 20531.839969 21043.686858 20774.669865 17369.744886 15686.306143 23448.210991 24509.407341 17388.006963 18546.599789 18740.235628 20394.376738 16795.453467 18056.409993 18086.022331 19495.422765 21793.496411 21112.040946 19518.749539 19669.285925 18903.493385 19824.912814 18766.018917 20050.634370 17741.976233 18994.399168 20449.255555 21303.044777 19769.145533 19368.372962 21751.346934 22704.372201 19147.035416 19276.918689 19895.698061 20449.682438 18434.344058 19204.553138 18642.811026 17435.646543 23595.171780 21910.446188 21144.299224 18487.889909 20350.209827 18405.874456 20037.247231 19487.556201 18368.847065 18454.775218 18435.254515 18697.943707 19327.472912 19055.789912 22580.058133 20265.206549 23343.611544 20489.427473 20713.708668 18795.565660 19768.882312 18463.895142 19529.026992 19788.211713 19027.787584 19429.030575 19447.563497 19776.758825 20133.653658 19528.688405 18865.301199 17788.496739 17182.762847 17807.270091 16809.534816 17968.970147 18522.486312 19038.962468 19724.651881 19227.283834 17883.822888 18040.376812 16739.541471 16740.863314 17893.387968 16367.026502 19518.072454 17758.361812 20094.209796 19338.678459 22734.209232 21642.459002 19731.912657 18072.315844 16782.611503 15182.499591 13328.654656 11956.201552 9807.473530 8898.598307 8428.031555 7005.724128 5105.533154 2258.149555 -1266.905147 -3301.110378 -4054.287857 -4656.829128 -5100.331627 -5418.203988 -5633.466949 -5759.524796 -5807.017755 -5786.683840 -5709.367241 -5585.395405 -5424.107401 -5233.661991 -5021.048110 -4792.196162 -4552.118794 -4305.044539 -4054.531684 -3803.562085 -3554.619051 -3309.753674 -3070.642692 -2838.639594 -2614.819676 -2400.019334 -2194.869755 -1999.825333 -1815.187327 -1641.123470 -1477.684368 -1324.817795 -1182.383373 -1050.178952 -928.045355 -816.437359 -720.159453 20818.284212 21082.434705 19513.061564 18129.311240 16770.144683 15217.040231 13071.043713 12963.863040 9362.831836 8511.829941 9296.734122 8169.055596 6502.856059 2774.010988 -804.180762 -3242.435147 -3942.272646 -4586.928621 -5066.924442 -5395.651989 -5615.089504 -5743.568436 -5793.196777 -5774.993551 -5699.746870 -5577.687567 -5418.097474 -5229.120780 -5017.758404 -4789.964142 -4550.776119 -4304.446205 -4054.552757 -3804.094690 -3555.570003 -3311.042644 -3072.200714 -2840.407724 -2616.747723 -2402.064627 -2196.995979 -2002.001463 -1817.386708 -1643.323029 -1479.863871 -1326.958435 -1184.461495 -1052.129285 -929.536046 -815.514907 -704.608576 16287.785808 16110.082898 13741.838461 11624.242277 10858.031860 9994.532743 7429.577768 5485.088218 4718.887325 3896.236107 1678.702748 8.965115 -646.949538 -870.219981 -839.280424 -706.474531 -561.488623 -450.244588 -391.253338 -386.948098 -430.775533 -511.666517 -616.985412 -734.471984 -853.402041 -965.130510 -1063.193670 -1143.147807 -1202.290158 -1239.359014 -1254.262008 -1247.846610 -1221.707258 -1178.016719 -1119.370421 -1048.637214 -968.815250 -882.895660 -793.738909 -703.969170 -615.891196 -531.432509 -452.111689 -379.031634 -312.894928 -254.037288 -202.474076 -157.952969 -119.995558 -87.841808 -59.852476 17845.518389 16775.456877 14947.123141 13154.505527 11648.436731 10339.290740 8678.588225 6834.914593 5453.994947 3582.183900 1616.986418 206.890592 -542.655491 -809.367487 -811.199441 -699.047478 -565.380833 -459.265825 -401.652415 -396.584572 -438.528529 -517.072863 -620.010301 -735.343970 -852.486566 -962.837741 -1059.919716 -1139.244530 -1198.055361 -1235.038192 -1250.054632 -1243.912557 -1218.171487 -1174.972000 -1116.878812 -1046.731217 -967.499431 -882.149183 -793.519109 -704.216011 -616.532301 -532.388359 -453.300626 -380.374311 -314.318026 -255.476471 -203.876937 -159.286949 -121.291438 -89.464824 -64.152726 -651.840071 -620.451299 -627.087512 -597.309231 -564.021611 -547.468731 -487.291535 -485.307644 -424.021103 -424.263837 -368.414131 -368.984444 -319.155747 -319.734883 -275.594664 -276.132055 -237.206982 -237.696071 -203.506715 -203.948490 -174.034175 -174.431074 -148.356147 -148.710989 -126.067341 -126.383093 -106.791443 -107.071125 -90.181565 -90.428189 -75.920135 -76.136657 -63.718313 -63.907595 -53.315023 -53.479797 -44.475681 -44.618533 -36.990709 -37.114056 -30.673883 -30.779969 -25.360609 -25.451494 -20.906139 -20.983705 -17.183805 -17.249756 -14.083287 -14.139156 -11.508944 -11.556100 -9.378231 -9.417890 -7.620219 -7.653455 -6.174215 -6.201972 -4.988504 -5.011606 -4.019200 -4.038361 -3.229205 -3.245045 -2.587285 -2.600336 -2.067242 -2.077960 -1.647185 -1.655957 -1.308888 -1.316046 -1.037235 -1.043056 -0.819731 -0.824450 -0.646085 -0.649900 -0.507852 -0.510926 -0.398125 -0.400593 -0.311271 -0.313248 -0.242718 -0.244296 -0.188761 -0.190017 -0.146411 -0.147408 -0.113264 -0.114053 -0.087392 -0.088014 -0.067253 -0.067742 -0.051620 -0.052004 -0.039519 -0.039819 -0.030176 -0.030410 -0.022982 -0.023164 -0.017459 -0.017600 -0.013229 -0.013338 -0.009998 -0.010082 -0.007537 -0.007602 -0.005667 -0.005716 -0.004249 -0.004287 -0.003176 -0.003205 -0.002366 -0.002388 -0.001753 -0.001769 -0.001288 -0.001300 -0.000930 -0.000938 -0.000647 -0.000652 -0.000410 -0.000413 -0.000192 -0.000192 0.000038 0.000041 0.000316 0.000323 0.000693 0.000707 0.001242 0.001265 0.002069 0.002105 0.003333 0.003389 0.005268 0.005354 0.008221 0.008351 0.012694 0.012887 0.019412 0.019694 0.029396 0.029804 0.044073 0.044654 0.065391 0.066207 0.095965 0.097092 0.139229 0.140758 0.199579 0.201617 0.282496 0.285156 0.394588 0.397981 0.543502 0.547720 0.737630 0.742717 0.985496 0.991408 1.294692 1.301248 1.670235 1.677041 2.112153 2.118518 2.612154 2.616990 3.149237 3.150940 3.684125 3.680458 4.152518 4.140492 4.457234 4.433012 4.459495 4.418329 3.969746 3.906005 2.738608 2.646033 0.448427 0.321511 -3.295679 -3.453977 -8.988081 -9.119137 -17.333526 -17.047250 -30.101171 -26.726350 -42.236171 -35.596162 -47.621909 -40.425333 20903.702239 21930.909562 19540.441177 22936.777830 21994.838060 17295.237401 20531.541178 21363.800417 19703.138520 17588.942610 19929.440407 21895.594873 20181.011845 17519.948121 22571.823649 15846.185047 11483.848169 16255.487202 16888.371835 15540.124351 18499.528262 16039.061839 22846.593841 19279.173596 23570.268176 22007.021326 19269.193613 20514.642455 14987.431787 17904.873702 14689.537277 6080.147731 21545.820813 19604.626155 20672.724329 20321.291882 13290.048728 17103.906534 19860.911268 17419.589167 11824.964950 17120.373561 10116.679615 22002.714725 16988.604080 9108.932469 21221.334635 23889.424218 21509.607835 17285.039138 19574.220773 18141.926729 8842.027919 14262.545094 17048.948181 16987.854004 20280.352113 21480.510941 25046.088034 21430.457168 17544.098737 21279.823089 19067.319746 16597.796980 13232.951325 21064.681106 19741.121527 18335.110129 24105.230833 20672.515448 20478.989082 19080.385194 19605.934967 17305.830188 16399.447494 16702.308535 9653.854773 22355.691479 21653.270739 21679.792147 18740.808547 23629.517811 17338.410955 14693.247080 18989.047921 19515.611264 12084.277856 12487.574698 23032.770505 23130.229116 15951.937568 21833.879134 20128.117474 14262.755864 15112.386812 18729.892674 17054.528290 10294.132795 15004.376480 22969.040860 19888.384109 16340.839796 17927.237821 12174.823331 21316.043391 11738.969308 16978.254055 19433.987617 6463.658961 11316.988492 22015.452669 19659.865274 21250.712799 4493.819595 20246.087187 11348.963036 17803.732492 6764.825424 9090.681750 7161.595716 4679.836721 21667.531255 20864.384450 10590.800408 22359.778006 7377.316789 14363.424758 9105.785204 10844.960655 12554.738149 14209.026114 10020.652630 23309.926973 19568.929779 19376.937694 14841.888962 12583.805346 15948.132010 12762.308463 8035.443163 18570.669995 19569.643109 10199.691395 20889.830991 19125.853529 20523.653343 19486.395226 18492.595175 17091.261894 15848.139766 11264.745662 16618.855283 6749.558104 8406.754165 21023.604613 17034.909300 21303.248861 18886.592259 12740.463428 20381.859737 11672.735707 11130.114722 5047.281693 7282.852060 5958.187866 21868.165134 20145.011953 21411.258892 13829.586473 12516.815476 8923.299213 11731.529919 6142.589272 2786.317623 2803.628913 1884.809807 21412.207909 20267.550293 17749.712341 18960.988429 17094.856749 15636.331435 11119.118545 11584.231818 6517.088148 1982.288728 -996.271228 21258.487623 15863.300933 18791.945625 13496.558734 8880.937714 3623.507582 2874.765439 5039.017683 3142.976492 2356.664312 465.909017 20992.616598 15946.930271 16137.439012 17321.014397 12742.140470 5126.843491 8456.849250 3806.813338 5418.962765 2548.399853 2153.485618 22697.260320 18879.636758 20258.895743 16919.389813 6212.417620 6607.546562 6516.069110 4041.152391 1850.097715 2370.461420 -967.409351 17963.575912 19689.647474 18732.691994 14366.027976 8745.821813 3893.868298 3513.827585 968.504831 590.247424 2312.298841 1483.333317 18422.479361 17777.490506 14464.870770 11476.266211 11936.782330 3374.855799 5029.714267 240.828957 501.428452 1481.726864 4051.788568 22412.435947 18958.196608 17223.310590 9897.898683 10754.782306 9598.321863 915.738819 2207.868579 1644.011903 3494.679308 2459.652523 19589.577793 17385.002978 14249.781250 11868.514050 6232.003208 7679.313759 9235.451967 7848.431030 5878.041510 3460.036287 120.406861 17730.451913 16899.554740 14455.567711 12385.885486 10731.138173 11876.985191 5729.004259 2144.867602 6628.129956 1887.037690 340.703086 20570.953873 16530.086936 15580.281403 18254.109011 15308.069742 8341.284051 6773.682812 5361.535102 5467.368075 4090.990384 4545.175262 20874.283799 15908.214465 15625.639467 11675.526031 16007.022751 2015.276168 7723.940048 2467.312651 2318.139664 831.665597 2435.920594 16962.076573 14388.639853 10527.800365 13918.243140 7597.977396 13566.972358 6311.088509 10715.470310 500.128007 703.516701 7532.516795 18127.565483 18902.864815 15922.396493 15103.060718 13742.818106 4749.707416 2765.107178 5705.576733 4045.208654 5209.312488 1712.309218 21277.950745 16248.413084 12853.701211 9416.985623 11112.967170 4852.987984 7886.686482 4015.907969 4777.585423 5923.509311 1954.035029 17412.260721 15199.030929 20921.777996 13941.287869 13174.291279 3731.758742 7425.877920 8050.535701 5751.095384 3818.560193 2089.863781 19261.992180 19927.251106 13262.390729 14006.900177 15644.867354 10967.401741 9370.400936 6258.412659 8926.639404 6696.632233 4561.910084 21607.703880 7943.106112 15832.909245 11767.879063 16000.019620 10855.539118 4364.137448 8026.024721 3146.915896 4553.861545 3305.894127 21966.626793 20639.730654 17872.382411 15306.721384 11933.263013 7635.266234 9368.606976 7315.955174 2861.193805 3285.707022 5067.629151 20049.526631 18309.290331 14351.904333 14205.505733 15508.811051 11702.677136 11488.606605 5760.327265 4330.680548 5309.303660 2887.857852 20093.324290 21197.624266 17795.104630 15618.958594 15562.954207 13297.963459 9897.831228 11682.054889 2567.756175 2825.289898 3817.892275 20431.640871 17990.988766 12322.278635 14389.787748 19363.311091 11475.339569 12175.007918 10022.741432 7788.775679 5843.132115 5548.597671 16158.470788 17473.239248 18868.472859 16215.589743 14040.070681 8103.490697 11213.631868 8648.659632 14232.299726 3927.478949 7519.575928 19290.185870 21802.278148 17323.805757 11680.346173 15533.118016 8239.826957 7553.830593 5149.688963 6642.892032 4689.719108 2780.057376 19348.298740 16322.101363 19661.783710 14297.899974 6590.395687 9554.033823 5584.461273 5400.818495 3430.449206 8045.942114 2249.651962 20870.797132 20178.070456 21008.455327 17822.027209 15186.402374 9959.879561 5779.690575 6629.156600 8417.449210 5532.893027 5157.948871 17392.936152 17913.573303 17185.550589 12601.670568 11520.815770 10352.516039 13266.164875 7383.762058 4134.650012 5104.765894 3168.552915 20324.661527 22942.482980 18197.362308 13360.834057 13288.896832 10960.401488 10029.161359 8883.918257 8166.645072 4227.005772 5809.280048 20597.024115 18184.838410 17733.468147 19994.680691 11755.015386 10409.602898 7819.952975 9388.348337 6511.189373 5653.885061 3585.541472 23058.545420 22168.866052 16873.647747 11919.900017 12813.828277 11334.494405 9886.281742 12894.126779 7070.827067 8294.520217 3873.164552 21937.191467 20339.323817 20674.598513 5649.966419 7433.784014 7616.636036 9180.513014 7811.830552 4200.203439 7960.357470 -1427.786782 20787.130762 15452.951901 14327.119763 21053.060534 10389.442532 13435.814988 12336.473672 4108.517181 5803.535451 10066.369169 5764.389155 22773.529138 21588.569816 15558.174746 15914.511397 12421.056080 13043.169731 5936.478196 15603.865953 7481.487738 3121.173694 3304.158524 21365.149885 22588.274171 19123.001771 14840.153582 10584.947540 14276.926592 15184.069322 4460.296828 10457.897652 3197.632873 2359.124947 19804.724613 19148.777408 20007.135007 15296.509921 16319.586970 12420.060185 13865.458441 9290.422093 11704.077108 4496.591841 3114.095690 20373.415353 14980.249895 20731.100009 17468.416521 12353.869647 14735.686588 11012.734773 12155.505265 9654.400150 6510.576112 2667.531859 21256.468405 19659.735190 16977.309997 15053.512036 17319.090934 12561.660892 13041.360021 11334.550122 5609.366449 5815.250789 2252.618795 23457.835988 22795.823485 20570.124215 19132.463712 16477.917594 15149.449701 11465.286776 9116.697793 11285.819118 8126.892582 4330.700436 21749.536420 21658.954475 17960.108390 19347.498831 17907.959697 15819.872525 9438.907945 8563.168486 4722.441581 5519.902110 2398.320207 22459.283678 19812.685149 18989.642033 17102.877291 12452.915110 8212.633264 7885.986176 8896.462831 3566.982990 4845.087099 7877.127218 21814.489764 21235.786363 20244.192944 18425.586354 11564.243277 11832.433589 7741.714973 3700.168682 4865.450447 3055.163566 3619.954087 21321.632183 23274.967924 18490.306583 14715.734500 10899.251808 10119.839376 10676.496261 6498.966666 6944.383412 5451.660379 8284.974027 21790.031789 21692.526990 16959.513629 8955.990314 15028.632591 10617.916790 10252.880406 8843.297728 8697.357667 3357.934162 4209.402883 21012.369982 18103.408015 19439.418632 18858.678882 13393.167747 14126.114361 11889.239728 15957.494068 6786.643842 3108.618987 2158.219838 21167.566786 21218.578075 18908.913961 16539.117722 15428.276895 13989.789798 11049.388357 8508.051348 6787.746152 2935.863257 3280.645064 17869.959442 18871.957096 17879.230535 15910.627721 13768.738571 13503.324507 9135.202948 5554.412869 5676.850721 5299.383727 4310.595503 19704.863936 17990.230453 17984.379905 14353.769525 17763.440021 12666.118278 7017.334514 5125.395679 7332.817847 3237.617794 2880.196587 19762.453702 18355.899643 18988.867291 17434.483995 13925.944164 12740.781586 16658.881990 5945.722967 2934.757868 3710.943017 2505.837116 19325.947730 19052.702484 19972.182882 16545.872839 16020.505126 14125.128386 9956.121234 9462.470609 3785.319784 3711.023809 4320.008835 18554.505907 17778.191018 17253.754575 18556.798473 12914.019669 16592.679758 11514.359590 8111.524276 7158.744372 5960.057467 3511.672131 17574.525600 19583.650902 19248.378776 15038.259686 12622.405114 11464.206711 10821.973392 8372.511310 6690.132307 3238.742268 2305.020261 20360.163198 19961.415631 16910.953445 17902.258940 11847.044913 13402.234840 9660.750427 6917.565130 3480.105479 3613.227977 1043.231333 17680.700135 17022.847539 16927.081245 18301.606061 13307.442702 9226.656486 7296.469926 6629.905318 5942.486198 5775.845163 1533.774741 20511.726222 21561.274059 14797.924904 14546.949100 12892.372084 9294.718685 9584.963367 7177.615642 10528.146005 3441.898284 4609.507593 18323.282156 18710.047819 19382.242802 17726.163675 13741.454788 9410.064484 9015.448678 5197.146659 3347.969807 6383.213527 7442.926425 19880.508428 21454.862914 16986.754652 15290.902314 10233.327397 15135.056950 7575.562589 13783.298456 7950.091951 7911.792241 2856.328631 19920.346996 17528.872818 19803.038676 20861.821508 14479.406539 13915.818565 9819.126213 8815.166131 7539.860361 9027.762358 6943.504975 18632.035724 18482.688994 18955.170319 15880.346813 11286.193771 13022.263044 11851.990490 6309.009567 8878.925582 7191.349852 10108.530674 18464.490097 16908.297004 17528.250728 18882.731023 14847.577707 16165.527271 11614.414938 7884.450718 6186.150109 1312.159795 4177.579031 19524.990284 20188.579571 16848.912989 14845.796392 13563.212888 13266.711417 10466.431353 8177.144951 5885.350991 6140.584113 8416.599406 17774.400216 20112.309021 16473.733708 21854.611912 13997.538480 9484.036546 15756.275238 7308.869656 8315.228382 10991.709398 4823.038798 19112.243750 18057.010036 14282.511492 18573.177582 15206.726334 14523.524516 12214.836370 7975.293004 5927.764626 6313.798823 7250.613816 17898.414502 20400.807908 15275.213050 18773.924883 14861.553263 15338.599312 9902.457300 8075.686802 6140.503561 6893.678198 5126.661133 18839.517926 16782.053110 18824.186474 16894.840321 16851.546352 14312.569447 15348.524493 10619.690063 10434.522705 4513.653666 4592.367917 19291.981304 19972.708007 18997.693501 18275.475091 13881.765370 11750.268922 11680.948006 7452.964918 8505.307751 4712.573101 8551.122121 17894.078411 20291.837078 19107.312441 15569.793732 15687.520069 11491.404097 10059.840781 12604.217611 9754.020609 1510.149922 1534.513734 17317.841581 20887.847356 17464.816062 15452.117127 17346.614793 14826.076029 11822.203749 11069.444687 11885.135704 9093.999810 5700.078949 16843.356211 16713.274806 16299.310476 16405.894288 16573.582453 13852.026781 11878.557069 9008.063129 11338.988758 8032.180482 2684.626388 16875.942315 14752.457932 17214.252060 15928.996271 16238.357560 15434.012899 10401.057609 12516.349671 8501.268433 6481.747665 4225.528295 17950.743228 15017.470581 17444.202906 17593.844934 16055.226173 11408.892252 12976.889777 9241.645912 10626.095772 7995.809014 7711.058635 18922.753586 17915.382312 14118.843480 15833.979748 13582.759250 14112.506888 11816.587221 9652.915570 466.965945 6420.334537 8440.897431 17060.128201 15770.105944 17810.991903 16946.890888 13887.600032 15097.730307 13344.953445 9814.220537 8215.185506 6646.202615 10063.091486 18884.088312 17929.446577 15721.109417 15494.890598 14046.689644 14397.468636 11720.138582 6453.912372 7875.199164 4489.105948 1218.740168 18317.049873 17651.427182 15145.309896 15055.734331 14111.194410 14136.126062 12473.195536 12913.892408 9565.480611 9137.072235 2704.749499 18657.253839 20334.376963 14116.953076 16260.940550 10341.840437 14307.453360 13438.032038 12112.864677 6051.990139 1538.904889 5202.645329 19367.543215 16125.032951 16671.679270 16381.816275 13807.106365 13394.983204 9389.142054 12184.425627 11576.280894 9348.900265 8133.298136 18078.271575 18701.130995 13411.078813 15704.296512 11425.043512 13566.110930 10662.103202 12555.182835 5196.740948 6729.848436 6853.631577 15250.706345 18665.725833 18336.384229 17040.356945 19122.334138 8946.672316 13866.086597 13028.977016 10286.298545 4719.806098 5667.115406 18901.911297 18054.682147 16846.871947 14485.764449 16546.428077 13492.992864 8110.848521 14162.459956 8736.368071 8560.066903 1932.861183 18398.568040 16430.091619 14131.401458 13068.046203 13910.644437 12436.473794 8588.372537 10422.816930 5553.390130 7486.486108 7435.180673 18255.432283 14907.682083 18079.282400 15854.043704 11365.032248 11442.413645 10668.002880 8218.811415 7349.335237 11554.494995 8540.742497 17233.063540 14415.452585 14919.881983 11966.831623 11550.618864 10189.633733 12271.819458 9964.047573 6815.104505 6671.210389 3068.707982 17192.270107 17245.717586 17435.302092 15696.564580 12741.222929 8437.532724 8956.030935 10354.964242 9442.903444 3691.124755 9942.648519 13910.026408 12123.280049 15155.727508 16708.803541 14770.705830 9983.626415 14995.553973 4429.307354 7077.113745 4818.248290 6351.118311 17347.841179 17041.411305 19040.741945 15817.666753 12235.333146 16381.748883 12974.773618 9690.777122 9290.529869 7541.595489 7421.381670 17449.513241 16838.095412 17220.782893 13237.592251 13260.060368 10111.000375 13684.223970 15455.053233 5154.350951 7589.483265 5735.133152 18298.311149 20234.704725 20639.115070 17887.673153 13334.744430 20625.621174 16916.677038 20717.290532 20904.900020 15152.400928 14391.509282 11266.284946 6200.140400 -1664.644582 19798.604635 13502.177088 20143.354422 19897.540003 9727.902091 20950.527665 12970.037508 11433.819187 18730.337539 8825.985959 10980.424613 9330.709099 3751.064688 13228.777830 10283.844203 12529.373359 15591.641891 6443.551982 9300.873602 8973.068517 12025.768017 10037.584862 15142.974645 10076.927147 5991.390952 6924.188798 7886.950004 7313.283039 12495.598765 10072.583784 11968.462094 13465.524790 13258.572679 11461.998485 13656.202856 13915.191997 8005.871244 16124.917552 13796.911439 8426.788220 8106.333131 6663.045186 14144.725461 19274.635583 10200.120921 10607.899082 15649.200720 11523.921090 13674.673950 10776.923976 12252.627068 6682.362248 10745.928384 9505.490301 3471.336019 5303.294953 12519.270586 16362.872835 11486.106552 20004.396709 13512.158092 15021.752032 16691.279067 10807.071264 10042.096751 10594.234611 7981.433367 7853.886680 12095.249689 3463.384039 22196.600426 5267.150018 12092.676155 11266.401683 5830.095965 14582.671759 14197.935663 15628.292253 7863.784077 8589.098325 6930.868150 6375.090430 7671.924805 3195.328593 9298.582379 8348.872552 10093.495384 15412.652661 8520.809421 14074.633147 6285.611794 6622.933593 2358.931538 7778.103835 10435.157829 8221.020430 4477.113855 3801.029271 13441.940954 13208.524140 8411.518740 3193.544087 8641.594035 5593.236736 5847.830884 5334.816547 3908.783228 8867.378483 7130.443638 7265.718434 6446.605152 3016.712032 4013.185298 7113.770782 9040.705322 7260.566932 9663.198063 4140.336066 8955.553426 6826.420011 12254.105989 3732.834633 4245.437605 5114.367635 2835.377140 4897.275822 4765.476887 5578.324181 17337.671914 11197.479140 3994.954001 6491.727325 4458.588417 11061.213110 7364.077725 10511.906554 11510.314723 7700.047167 5479.626577 3726.281983 8087.276752 3324.698138 7482.571861 14399.353416 5126.882272 9776.205176 1968.372525 9197.290497 5476.057732 8902.408164 6339.953252 14634.054187 6480.414327 6198.352192 3015.799982 3240.674869 1678.627065 8597.629092 4342.728389 3514.778506 5548.687228 12996.772164 12103.466110 5237.194124 4363.384662 4380.132020 3833.465495 5611.192387 2287.626180 4006.857157 3680.362019 2442.438587 4410.088290 3494.494826 4139.930242 6697.334471 3976.727378 7189.802881 5799.451472 2668.747599 3450.857347 4917.929815 913.317449 866.494312 537.093841 -822.428985 907.591992 661.736870 5140.306289 1132.451656 815.425759 5344.827394 2969.434587 4534.776279 4276.253757 5346.549852
</DataArray>
<DataArray type="Float64" Name="Velocity" NumberOfComponents="3" format="ascii">