<VTKFile type="PolyData">
<PolyData>
<Piece NumberOfPoints="1945" NumberOfVerts="1945" NumberOfLines="0" NumberOfStrips="0" NumberOfPolys="0">
<PointData>
<DataArray type="Float64" Name="Pressure" format="ascii">
 53638.241058 49684.290670 54714.608755 46829.961075 62954.734300 57442.509690 57560.039367 49138.416633 51664.912784 46006.918487 52421.656513 47125.075220 53691.199553 49186.045518 55232.914375 52385.646940 54183.029836 51109.642315 52239.375251 51337.499581 44455.935135 40132.409591 49345.092948 45225.615200 51751.362076 53269.021683 42224.250433 38156.140917 51105.813894 52625.253007 43214.039372 40466.534804 36101.928960 30915.268620 48499.356103 50059.459203 43110.750266 40069.624931 42412.724398 38985.830139 45707.763072 44021.832662 37722.155510 34030.827131 42437.507270 40674.424442 36959.745571 35270.805500 36907.501498 38014.890557 33648.007041 35370.065768 32157.861688 33581.922830 31451.511880 33754.935579 29801.168302 32730.028484 28133.343297 30738.393834 27268.323611 30256.074694 26565.171561 30351.461550 25619.376541 30082.041062 24400.586288 27998.454797 23679.708446 27253.262437 23073.269531 27594.551617 22415.072084 27548.753988 21441.277806 26584.791280 20372.386206 26055.855179 19499.362894 25555.113594 18927.888786 25025.401666 18696.652709 24746.968607 18612.021276 25071.386670 18624.340896 25185.204993 18637.864613 25335.354837 18604.055259 25639.673042 18481.539209 26126.920205 18223.486837 26725.300648 17773.404456 27309.292905 17111.265452 27747.952261 16250.319610 27949.036854 15242.870839 27823.602776 14157.682010 27296.701679 13043.146686 26329.473537 11980.162062 25262.243831 11043.544363 23915.465704 10252.965448 22521.448036 9611.325316 21162.138678 9113.767386 19908.110911 8752.652946 18795.224486 8509.798014 17817.958463 8366.330463 16969.304995 8305.930694 16232.626452 8315.845060 15599.775086 8389.497643 15071.032899 8521.348815 14642.180754 8706.767475 14329.285210 8946.613908 14146.529740 9233.653517 14079.281553 9557.926356 14117.717356 9908.618968 14240.270063 10270.517518 14419.607258 10627.286905 14624.101093 10961.580639 14826.032575 11256.666581 15017.105827 11497.401583 15166.874334 11672.001293 15260.100057 11783.211114 15313.013394 11835.327821 15318.331068 11833.051676 15298.614774 11785.319791 15237.316670 11702.720812 15157.535106 11596.984465 15058.291894 11487.627241 14946.702472 11376.580136 14833.775643 11262.392725 14614.490433 11154.933694 14446.614549 11019.508583 14087.218304 10910.578466 13797.407953 10746.723188 13320.437770 10586.889855 12806.858525 10310.595262 12146.763027 10042.355741 11389.648291 9727.545494 10731.561814 9171.486860 9615.169399 8517.703203 8461.625008 7873.696042 7492.241878 6775.216343 7524.770419 4930.904614 5545.243877 4201.797854 5489.864792 2450.210823 4589.189448 1174.230961 4627.652547 -307.713145 3306.005463 791.565128 1694.748391 2891.448159 1848.783604 47053.293443 47786.210238 52630.083903 48464.723978 42101.167263 39675.539066 35415.323977 32404.926846 29014.908189 25284.472735 21743.919079 18197.692244 15036.599590 12425.889231 9836.165808 9013.744078 8480.974916 5704.013847 776.921511 -2282.634610 -2205.798320 -5752.689655 -8618.416099 -7568.697786 -6225.594768 -5080.498837 -4128.342163 -3340.514638 -2688.779546 -2147.853468 -1698.159228 -1325.423619 -1019.054613 -770.534783 -572.315156 -417.256404 -298.481867 -209.467246 -144.218031 -97.434698 -64.614351 -42.075313 -26.914768 -16.920447 -10.458891 -6.359034 -3.804008 -2.238274 -1.292663 -0.727493 -0.396897 44054.050226 42487.404612 45230.978641 41301.551588 32356.608838 32359.426763 28723.003833 27006.819760 24825.976218 21465.689169 17530.827113 12485.738635 7843.153461 5823.006988 2683.590028 4218.356833 3345.116292 -5738.879128 -3151.335025 -2032.706688 -2271.043864 -7904.114552 -10152.940091 -7592.132779 -6219.115711 -5112.613998 -4163.069803 -3370.628637 -2713.427011 -2167.940129 -1714.825193 -1339.557599 -1031.215453 -781.025238 -581.288493 -424.805394 -304.695432 -214.456774 -148.121781 -100.409662 -66.823350 -43.674543 -28.044551 -17.700009 -10.984763 -6.706132 -4.028299 -2.380083 -1.379719 -0.775340 -0.395179 3513.830938 -2015.650148 -3265.678897 -4412.200925 -4030.425487 -3122.318504 -2842.586569 -1865.905467 -1926.771328 -5071.475492 -3036.551555 684.773583 1361.796253 1084.929348 703.660501 390.091857 183.715268 68.274275 13.288732 -7.843955 -12.920426 -11.861471 -9.304430 -6.965643 -5.224599 -3.990564 -3.089629 -2.392392 -1.828655 -1.367411 -0.995461 -0.704166 -0.483940 -0.323390 -0.210392 -0.133450 -0.082648 -0.050045 -0.029668 -0.017239 -0.009829 -0.005505 -0.003031 -0.001642 -0.000876 -0.000460 -0.000238 -0.000122 -0.000061 -0.000030 -0.000013 1360.796226 -274.658728 -834.978630 -594.008900 -449.050603 -284.445525 -408.923121 -509.727430 -677.301856 -841.398354 218.393930 1071.102431 1273.493277 1051.079843 707.394907 407.522937 201.396461 81.261249 21.178421 -3.759269 -11.148860 -11.276707 -9.223970 -7.044221 -5.320091 -4.061903 -3.135778 -2.422503 -1.850719 -1.385815 -1.011788 -0.718577 -0.496181 -0.333294 -0.218025 -0.139073 -0.086624 -0.052755 -0.031454 -0.018382 -0.010541 -0.005936 -0.003287 -0.001790 -0.000960 -0.000507 -0.000264 -0.000136 -0.000069 -0.000034 -0.000016 -0.226745 -0.155894 -0.206111 -0.144356 -0.134175 -0.106400 -0.067927 -0.065868 -0.036537 -0.037310 -0.019791 -0.020546 -0.010674 -0.011146 -0.005712 -0.005981 -0.003030 -0.003179 -0.001593 -0.001674 -0.000831 -0.000874 -0.000429 -0.000453 -0.000220 -0.000232 -0.000112 -0.000118 -0.000057 -0.000060 -0.000028 -0.000030 -0.000014 -0.000015 -0.000007 -0.000007 -0.000003 -0.000004 -0.000002 -0.000002 -0.000001 -0.000001 -0.000000 -0.000000 -0.000000 -0.000000 -0.000000 -0.000000 -0.000000 -0.000000 -0.000000 -0.000000 -0.000000 -0.000000 -0.000000 -0.000000 -0.000000 -0.000000 -0.000000 -0.000000 -0.000000 -0.000000 -0.000000 -0.000000 -0.000000 -0.000000 0.000000 0.000000 0.000000 0.000000 0.000000 0.000000 0.000000 0.000000 0.000000 0.000000 0.000000 0.000000 0.000000 0.000000 0.000000 0.000000 0.000000 0.000000 0.000000 0.000000 0.000000 0.000000 0.000000 0.000000 0.000000 0.000000 0.000000 0.000000 0.000000 0.000000 0.000000 0.000000 0.000000 0.000000 0.000000 0.000000 0.000000 0.000000 0.000000 0.000000 0.000000 0.000000 0.000000 0.000000 0.000000 0.000000 0.000000 0.000000 0.000000 0.000000 0.000000 0.000000 0.000000 0.000000 0.000000 0.000000 0.000000 0.000000 0.000000 0.000000 0.000000 0.000000 0.000000 0.000000 0.000000 0.000000 0.000000 0.000000 0.000000 0.000000 0.000000 0.000000 0.000000 0.000000 0.000000 0.000000 0.000000 0.000000 0.000000 0.000000 0.000000 0.000000 0.000000 0.000000 0.000000 0.000000 0.000000 0.000000 0.000000 0.000000 0.000000 0.000000 0.000000 0.000000 0.000000 0.000000 0.000000 0.000000 0.000000 0.000000 0.000000 0.000000 0.000000 0.000000 0.000000 0.000000 0.000000 0.000000 0.000000 0.000000 0.000000 0.000000 0.000000 0.000000 0.000000 0.000000 0.000000 0.000000 0.000000 0.000000 0.000000 0.000000 0.000000 0.000000 -0.000000 -0.000000 -0.000000 -0.000000 -0.000000 -0.000000 -0.000000 -0.000000 -0.000000 -0.000000 -0.000000 -0.000000 -0.000001 -0.000001 -0.000003 -0.000002 -0.000006 -0.000004 -0.000008 -0.000005 54381.461692 50495.595632 51188.252180 45448.392116 44914.648043 41858.899417 38796.733396 37101.573608 35385.259893 29229.887448 29121.777056 47871.494326 42963.004733 46938.448368 42174.204504 45512.887736 47513.183558 39606.203252 38787.565746 35456.598067 34861.873409 33899.393641 45878.163454 44314.878124 47537.831274 45681.489837 45269.249472 42429.785371 42052.225849 38050.557646 38094.950350 35632.607758 34007.396050 48867.221179 48511.329239 43680.096100 48821.492166 45462.626630 45162.404421 44488.904618 40371.540962 36895.961426 34684.618348 31501.316434 46254.864393 44721.281059 45822.315366 43336.036878 42770.711716 39117.765994 37140.309642 39030.853693 34620.009245 33741.668523 31455.225739 41771.871374 43141.535381 42709.185587 42644.905553 42846.075835 40775.958564 38540.884487 39178.888432 34911.490179 33240.265259 31200.798369 45010.599422 48375.165354 47216.619301 44963.656833 40415.733737 42671.554313 37951.209622 40670.573887 31813.623555 29499.451220 28217.741401 39728.989776 41440.058977 42006.102813 40399.686237 35414.514945 35809.070864 33872.758655 31877.988408 30631.442949 28919.774766 29805.304277 44462.818881 42426.505796 42502.691699 39028.477786 38472.882125 37581.985264 36086.115366 33458.229066 29043.270471 28477.118422 24767.992868 42202.016762 41216.739844 34190.244122 33679.141100 35621.417360 30974.001127 26631.411294 26493.115986 26212.169201 20151.085209 22886.667460 43725.773783 38692.578974 37925.370310 34762.002929 29218.349831 27740.152999 29665.160668 24702.106648 21841.284351 19931.323561 17100.889138 35250.454629 34414.596673 31817.903531 30719.373470 29812.722289 24605.376451 22776.321070 24010.406678 21816.615009 21704.664183 13843.344422 37294.140412 33499.872624 32491.819633 27839.554645 28103.767590 20785.200561 22156.710567 21284.722781 17929.265141 20181.437566 14123.657759 32777.339959 33387.026429 29654.017104 29581.476895 24981.097866 22426.578174 20207.050277 25523.182336 22131.933780 22938.537666 11890.942886 33134.653184 32379.605381 31034.226487 25120.670158 26004.536734 22257.466224 20994.825761 19619.177669 14283.191189 18096.567429 14389.042032 27659.213875 31991.093207 27922.431382 25431.477613 22410.939257 17072.384217 21733.557942 17518.989371 14176.075098 7087.109500 -2764.479505 29680.028590 30534.091848 29806.157107 22323.616524 25338.499021 18234.480773 25445.253733 13408.438949 6407.846293 -5152.615128 6609.607603 26699.528883 32099.136246 26681.265486 23800.641655 23799.219812 21116.611243 13622.586209 19118.775510 12033.982221 10192.184406 5467.520155 28654.381881 31562.604291 24924.359539 25184.402008 17252.151558 23525.012383 16316.181451 9222.559743 9519.297861 12194.376235 5244.815890 30644.784616 29194.802315 25352.235899 23242.244474 22169.310424 17576.697773 19444.533345 16373.676486 -2093.537973 -515.497364 6475.074624 31256.189467 27504.008526 25783.566606 20479.320558 22389.297877 17900.969701 7829.235275 7054.452588 4792.153850 950.129623 775.840351 30479.759990 27689.096905 24616.209719 21617.485296 16721.713112 20459.880785 20733.531005 9330.682151 10463.786283 4530.831678 -4862.632058 30756.711592 27565.318385 24364.918248 21365.790199 15907.685095 18766.653769 15719.337254 14083.505973 8559.538328 3777.456598 2307.434543 30903.176202 27191.832887 24575.356565 20105.619896 17468.288858 15622.341148 14982.530356 12235.830431 7545.920254 4682.959981 4639.546817 30749.115755 27197.546423 23805.851990 20486.292905 18015.965633 14938.349475 17277.559479 12139.741198 5564.665978 4604.267973 9639.398407 30962.446051 27337.527401 23414.336461 21629.579475 17234.281997 15020.366069 15102.608043 10535.662596 8223.449462 5021.759047 4137.603101 30860.823304 27679.861263 23623.658558 21789.442195 17593.623996 14937.982176 14661.871471 11855.873407 6561.792096 4834.201770 3864.562376 31284.525027 27409.598608 24673.908689 21057.853728 18998.043784 14510.766937 15240.157546 8748.400198 7212.159169 5516.291969 5639.443448 31231.879161 26684.157314 25473.083730 20776.319580 19953.559110 13939.990864 15538.155381 9112.942909 8529.902456 3306.907174 10544.409219 30073.140757 26371.708804 25357.463838 21079.255959 19981.307766 14637.406978 14067.172774 12127.985715 6443.397641 6356.919742 -1081.020449 29627.708441 26454.245560 24878.622014 21419.394416 19445.754775 16393.035834 12161.417090 13931.736549 1550.766139 9573.727468 4866.091327 29715.328205 26563.619195 24407.529670 21877.858085 18695.140463 17158.482417 11305.428349 14384.698781 -893.395057 10679.757618 3448.244587 29166.382939 26220.505967 24001.160133 22076.635625 18170.634793 17294.124956 11087.996995 13569.815624 1343.928854 9795.073317 3308.989080 28221.080294 25381.118180 23705.371185 21866.711849 17848.428236 17007.410788 11550.615513 12271.953119 4559.336709 6205.349547 3624.414277 27951.102885 24711.456091 23431.766727 21476.469703 17608.670356 16420.996125 12125.335041 10685.723271 6353.206155 2862.786249 4687.417319 28516.977532 24353.156995 23286.697876 21002.503886 17480.208491 15887.995801 12408.570402 9595.692664 7600.852314 1616.456347 6326.336487 28949.835220 23843.365141 23304.340176 20575.790616 17363.051267 15614.999784 12428.312545 8963.706946 8870.931471 1265.848285 9087.364060 28762.721705 23286.919475 23273.931053 20351.029738 17239.137226 15560.879748 12399.283890 8989.077450 9662.769799 822.387582 12073.017521 28203.002563 22982.589640 23135.336415 20329.594640 17183.346426 15597.642909 12350.475801 9416.491224 9760.101962 1032.846289 13082.244567 28156.826187 23152.569965 22946.963606 20399.395230 17211.123295 15664.292647 12446.179179 9906.493756 9238.212088 2011.587166 11627.124342 28016.764319 23282.352297 22754.452903 20479.962474 17316.454640 15665.839285 12664.411891 10227.747894 8728.233920 3049.497233 8930.316426 27552.186359 23323.100953 22555.268383 20505.950422 17540.687597 15626.428663 12995.453739 10374.671035 8290.712077 3647.737256 6653.283222 26877.357237 23322.766763 22388.762160 20431.246348 17878.198853 15593.521103 13235.956332 10286.410091 7962.400274 4020.147329 5223.293725 26124.551749 23328.215908 22367.284660 20254.531154 18290.174166 15567.750776 13587.873429 10490.024393 7947.776445 4229.880006 4504.193767 25397.323084 23278.049124 22503.096153 19974.070080 18680.436094 15558.557412 13910.704356 10608.723220 7987.219891 4462.459206 4177.861102 24780.281580 23117.901125 22690.470919 19582.890683 18910.302578 15480.215722 14088.189393 10762.678201 8145.296263 4776.488871 3994.940055 24338.465116 22807.820931 22803.922909 19061.103314 18857.308275 15246.926593 13992.744631 10765.669030 8020.181882 4927.129956 3757.729574 24006.853041 22307.514805 22752.102121 18421.408527 18475.732093 14802.667721 13572.753628 10498.179187 7765.243435 4994.718489 3445.286301 23768.317842 21662.328235 22492.271240 17715.230794 17833.652009 14186.302994 12889.769773 10021.860480 7346.563025 4801.071100 3119.404007 23565.064842 20944.564006 22056.795865 17011.098851 17058.897371 13511.982226 12085.633030 9448.728554 6829.374450 4510.015821 2792.614069 23282.639449 20210.987795 21491.908569 16367.035274 16277.522686 12898.946939 11311.196777 8897.213860 6309.552998 4187.219046 2500.349397 22816.567618 19500.657904 20843.686556 15802.030687 15560.907948 12411.083068 10664.760960 8447.393065 5868.724857 3905.444556 2276.192972 22295.101199 18793.037284 20159.197339 15311.772287 14906.553496 12032.526358 10161.710494 8110.592712 5533.944976 3697.404404 2125.508731 21598.296903 17956.226046 19381.960511 14843.128244 14274.267227 11697.998607 9755.101393 7846.442192 5285.984150 3555.211357 2030.951552 20721.304304 17089.196206 18459.229094 14305.599110 13618.516291 11334.053682 9374.557146 7594.661346 5082.651661 3447.489650 1965.056226 19713.258300 16083.110856 17451.724107 13678.951942 12915.853152 10894.818815 8967.693409 7308.005045 4883.831432 3340.319038 1903.470937 18734.809424 15140.152262 16437.826736 12997.181200 12174.708620 10378.780283 8520.723414 6971.955199 4668.902501 3213.179889 1833.206761 17802.428350 14265.594862 15451.931193 12305.836857 11433.368205 9821.324080 8054.214903 6603.728834 4439.397991 3063.446297 1753.502945 16939.259602 13482.326461 14537.749629 11660.198738 10745.416763 9274.412035 7605.200508 6237.119800 4211.947340 2902.416125 1671.712291 16183.322387 12836.645349 13737.871958 11098.124433 10149.636666 8784.279557 7209.295406 5905.630573 4007.160840 2746.738523 1597.512894 15528.560411 12316.730897 13060.498659 10637.220383 9662.959821 8377.126725 6888.590962 5631.229307 3840.247149 2610.737268 1538.337868 14981.705433 11917.156089 12495.900856 10278.163095 9286.298676 8058.043503 6647.640265 5420.502496 3716.728203 2502.363348 1497.252315 14536.336196 11631.614071 12039.210622 10007.481008 9005.252782 7817.261684 6476.994575 5267.785616 3633.320491 2422.452435 1473.091049 14167.148282 11425.958337 11683.201094 9809.253872 8800.142852 7639.517844 6359.617680 5160.518993 3581.400467 2366.577996 1461.953075 13888.478884 11297.569267 11419.510966 9667.671675 8651.739120 7509.733833 6278.594544 5084.976311 3550.681366 2327.921520 1458.983136 13704.818582 11234.614784 11240.117106 9572.868387 8547.587094 7415.302068 6220.607038 5029.882523 3532.152207 2299.881697 1459.726496 13601.847775 11225.322323 11134.819922 9515.879278 8481.734290 7348.802359 6177.078850 4987.745104 3519.626747 2277.371607 1460.916588 13577.096591 11267.872910 11093.532356 9489.768622 8445.737316 7305.086126 6144.144586 4954.144300 3509.737311 2257.333470 1460.556873 13610.451268 11341.983808 11107.028680 9493.858474 8432.696192 7279.607254 6121.960835 4927.473042 3500.522690 2238.760655 1457.745831 13687.643837 11447.492224 11162.021991 9517.445488 8440.177548 7268.035942 6108.316994 4908.270255 3491.245332 2221.235531 1452.653308 13780.840176 11575.330779 11250.396895 9554.850444 8468.009159 7270.214759 6100.812751 4896.073900 3482.790541 2204.574308 1445.840495 13879.353892 11703.766621 11355.538892 9603.783452 8510.667465 7282.652930 6099.655172 4888.095536 3474.760331 2189.459299 1437.462656 13992.087365 11841.029682 11457.606131 9653.492784 8556.337375 7297.567858 6102.661868 4881.774263 3464.952771 2175.571390 1427.498085 14095.424936 11964.009305 11547.283366 9709.742736 8602.423954 7308.883465 6104.612520 4873.457354 3451.594765 2160.982656 1415.426301 14179.432271 12053.955225 11598.940139 9749.227356 8629.137965 7303.930459 6095.448639 4854.130759 3430.052377 2142.918015 1399.687018 14241.355998 12119.091259 11626.845366 9773.546202 8634.807880 7283.673594 6072.888728 4822.657483 3399.445426 2119.549085 1379.398363 14266.578869 12123.969703 11622.743571 9768.967457 8605.939548 7238.011332 6026.184187 4770.344182 3355.787068 2088.752749 1353.746367 14284.676423 12122.631450 11597.645243 9741.310353 8549.612258 7174.495749 5965.017843 4705.313276 3303.325132 2054.515157 1323.029768 14268.991173 12067.293706 11537.521005 9699.027439 8481.212498 7096.702292 5886.716228 4630.741637 3246.217038 2020.587805 1292.126954 14238.170779 12005.041908 11452.351442 9612.461217 8379.101183 7004.620037 5796.877228 4548.824943 3186.261093 1986.347116 1262.509080 14167.387992 11887.182741 11365.007338 9535.834315 8278.040837 6913.979950 5708.673354 4473.716758 3137.697011 1965.309800 1240.014234 14030.989365 11690.440331 11184.073668 9373.559057 8126.035332 6797.618018 5604.068756 4385.185894 3071.962128 1934.215004 1221.093800 13952.398701 11591.961218 11112.251206 9249.724883 7972.336562 6662.140567 5477.347402 4297.617344 3020.540799 1917.911090 1207.578168 13598.124655 11203.022783 10770.555444 8980.456619 7764.885501 6514.867766 5347.000350 4187.332353 2920.184412 1858.646274 1193.334248 13520.957908 11163.276840 10691.328581 8794.529324 7536.868572 6294.462073 5134.165564 4042.518732 2833.410535 1806.603508 1155.975005 12936.802561 10585.442395 10216.940135 8433.447297 7263.573185 6086.668463 4961.923608 3885.104638 2685.538001 1719.664853 1136.765529 12719.069369 10446.258578 9958.882268 8103.937603 6939.491944 5766.556580 4674.784484 3677.044958 2533.926200 1570.822498 1047.887450 12108.022496 9902.024736 9469.015192 7657.398619 6555.088391 5453.987453 4363.091285 3403.268222 2386.405892 1536.003455 1013.886217 11446.354343 9274.507669 8795.706621 7122.415832 6106.488386 5016.451151 4105.542801 3231.273779 2096.599956 1189.816255 913.625251 10942.709315 8928.916782 8351.163629 6571.036979 5560.002562 4519.532082 3512.890087 2743.147652 2005.645311 1343.840996 771.399869 9780.426362 7878.077869 7357.137158 5953.938971 4868.970080 4197.419885 3306.987441 2482.634141 1567.131407 738.171108 813.612870 9276.008008 7729.844209 6723.086472 5263.738201 4375.897792 3173.442593 2557.685442 2053.275841 1619.345206 813.639870 482.485928 8085.680300 6342.790297 6125.776311 4473.446831 3774.803974 3082.729050 2451.140099 1426.086039 504.788282 866.335970 332.688774 7644.053201 5885.669251 4971.915012 3698.911620 2555.183124 2258.518066 1186.950654 1700.627840 1129.299790 -45.535761 549.751814 6768.029093 4878.191855 5031.549454 3744.391770 2373.684057 1923.163403 1063.572429 58.128284 643.480593 -291.376731 219.143876 5871.500111 4951.292863 3088.839301 2912.783953 783.869409 1587.500195 1176.190578 244.513762 463.811548 345.437235 -82.010496 7004.950167 4257.403222 3391.598022 1703.958118 2497.942265 -84.886674 329.485491 -532.678485 -361.108909 -457.466570 -10.999657 2665.249758 5202.658151 2447.741477 1446.476453 -69.788415 56.394675 898.182631 -859.706356 567.921658 -589.135360 -57.988165 5163.181665 3095.065738 2320.619838 1037.431956 -163.668482 -469.032874 -1936.987892 -740.348350 -131.649196 -1278.181285 253.970178 1500.714664 3103.730546 1107.075708 828.264915 -193.841041 422.565076 -809.974079 -671.157098 -2167.988967 -930.738055 -119.936593 4612.439673 -940.196906 1378.731380 -722.426149 -651.893126 -1269.205280 -1391.069271 -1517.139193 -1196.183545 994.344022 -815.138320 25905.424410 24861.931621 22324.690564 21574.410620 18843.569471 16719.384686 15464.952377 13083.280401 10529.421701 7981.537249 3705.376095 1919.496022 1066.512496 -3295.905028 33399.350850 30274.936220 28300.315471 25899.119335 23328.107721 20047.781846 17806.791984 14543.288745 11477.192952 9247.542690 9618.550645 2098.090825 2599.467024 1408.492604 32297.613821 30131.380417 27430.832208 23780.147321 21686.394681 18111.022967 14844.400278 11598.632045 10404.162050 6096.117757 5312.081372 4181.691879 -76.291109 949.994172 28760.609879 26599.444593 25311.519805 22258.315464 19370.911707 16873.189369 15118.275563 12734.477064 10904.885398 9965.112773 7367.771022 4576.908490 1591.981482 1024.362447 27330.487270 25295.459156 24228.924920 21787.561682 20046.247814 17715.303522 14665.634357 11729.576057 9190.089031 6248.921901 4932.646404 3906.010578 1390.543458 433.436575 27926.672682 29040.060351 28461.489805 25360.351338 19409.276654 15367.227996 13257.425115 11164.386310 9524.048914 8028.304123 6302.344790 4108.830742 1653.265789 535.026194 27088.577763 28927.967588 25412.301155 16496.096808 18656.024703 17968.544797 15657.938216 12761.418186 9604.320644 6935.827016 5268.259340 3954.719069 1460.227494 448.041969 20760.948051 21874.562308 19841.967030 22289.495736 20698.202643 15405.426114 13451.101540 11724.344876 9736.580060 7496.097152 5858.646800 4381.881713 1563.364744 678.997255 23678.436471 16767.608260 14967.754707 19490.785326 16703.858711 15161.364122 13750.599291 13374.957408 10676.714769 8026.386113 6263.026885 4122.913028 1444.369928 1043.444369 23301.378732 16018.197484 16177.950761 18244.403424 17100.687301 15447.898342 13497.215269 11171.692679 8104.150648 7450.935191 6135.278625 4081.473486 1480.816610 1073.313022 17080.152445 18398.159295 18851.784796 17846.422584 16271.685626 15060.998287 12902.279013 10471.392295 8621.292675 9417.137309 7185.081162 3912.486915 1449.634056 1124.478586 13866.670426 8456.383370 18937.396603 15360.630061 12188.386709 11873.010608 8011.880172 9477.822963 9775.429247 8922.881954 6753.973652 2999.802575 626.272916 1535.222649 17996.299219 12838.061689 5308.858873 12503.608708 8953.640919 14015.031748 13467.106029 11399.783919 9700.562186 10288.689110 10841.899121 1740.886398 1538.500913 2500.765262 -2329.288409 9399.810869 634.720185 7803.156575 2206.526137 -362.833068 9728.991527 13102.446564 -1120.963588 9585.443499 8299.877622 1264.902265 8075.190867 3288.851600 -645.952535 -4553.532645 12333.238493 2251.512130 -6101.936072 -3231.180241 2657.777254 5199.751557 533.596636 1842.423429 3849.101534 7474.007604 6706.698295 2731.738119
</DataArray>
<DataArray type="Float64" Name="Velocity" NumberOfComponents="3" format="ascii">