<VTKFile type="PolyData">
<PolyData>
<Piece NumberOfPoints="1945" NumberOfVerts="1945" NumberOfLines="0" NumberOfStrips="0" NumberOfPolys="0">
<PointData>
<DataArray type="Float64" Name="Pressure" format="ascii">
 18725.963273 19031.239026 20290.113656 19835.816756 21080.589903 19978.976710 20681.660078 20275.902417 20722.881972 20556.468348 18957.358445 19157.096610 18443.807772 18967.444283 19471.436051 19312.028958 19918.191662 19696.507428 20619.259018 20446.007831 19647.388200 18920.433476 18051.694123 17973.909389 18471.077629 18749.275169 18041.953270 18043.893691 17192.021555 16326.700765 18731.413881 18059.526038 18536.007474 17888.032371 18218.185010 17734.769080 16995.764116 16667.234702 17021.738568 17002.244038 16540.119655 16271.394512 17577.767545 17433.336611 16525.795936 16399.744951 15711.703685 15581.209430 15951.281567 16298.425473 16634.484401 16868.856018 16531.697247 16934.314870 14961.986050 15718.115766 14082.250558 14854.417299 14641.905851 14691.317491 15397.014329 15389.102010 15447.459628 15124.138729 14649.030008 14439.886655 15348.024283 15581.352872 15530.829923 15575.874333 16337.977924 15828.905609 14860.937509 14249.801224 16775.710309 16319.594487 15554.021176 15327.578392 15886.269494 16425.263051 15529.127651 15554.683043 15494.141607 15743.326368 14244.953181 14438.377880 15009.352333 14683.039992 15508.664031 14922.313431 16960.469441 15717.530679 16455.489691 16957.560245 13556.876479 14780.366067 15245.957155 15833.502761 16531.715774 15817.119046 16348.126810 15760.555242 14621.760258 14889.553269 16256.934161 15954.707151 16561.077690 15680.474669 18205.865758 16941.068853 20068.163485 18377.445874 16929.037464 16848.779647 17003.213181 17040.130048 16304.163087 15817.914234 18458.853847 17707.878115 19001.930092 17658.568158 18867.525913 18380.124307 19292.661345 18541.609975 21123.289678 20693.244266 20056.532955 20212.938211 20452.389121 20333.656049 21256.192320 20934.132242 21390.050400 21023.842204 20236.824505 19407.669323 23896.386283 22515.295326 23142.905020 22043.841858 22610.335510 22174.037644 25876.001084 24381.086963 27422.952859 26128.878945 23606.921424 23938.658352 26844.095512 25682.337483 27518.320734 25668.705760 30912.028344 28841.231112 27725.818023 26353.761396 30769.900160 29095.345606 25512.690330 25478.521914 28272.706824 27719.105206 31677.757480 30318.192980 32926.145320 32356.860710 30789.643713 30941.766139 33217.103682 33030.755814 34089.258832 33328.893017 35630.815641 33953.077367 31266.795768 30653.078121 33599.246462 34410.223045 29362.470080 30746.935459 34041.237248 34945.296107 37462.484050 35704.280863 35703.951282 34622.968663 37259.550442 36579.674583 35157.401571 35206.556792 37415.707414 37463.908672 37063.160897 37395.690868 35081.775105 36432.012762 36034.550974 37718.189798 36778.614929 38106.770943 37068.397315 38449.259276 36869.536329 38473.666643 36371.492122 37874.131457 37707.998594 38285.740569 18547.041061 17592.666184 15758.423400 13949.472862 12105.139177 9224.408511 5859.414872 3293.013304 763.103116 752.982568 2035.984012 -2539.151955 -6654.681599 -6229.535161 -4885.196878 -4207.757879 -6092.234955 -8805.390278 -9011.229962 -8495.165395 -7997.115989 -7511.563846 -7047.894438 -6620.439416 -6233.918188 -5884.326985 -5562.941027 -5259.924862 -4966.678346 -4676.971932 -4387.200520 -4096.105823 -3804.246601 -3513.406891 -3226.053976 -2944.899412 -2672.577710 -2411.434683 -2163.406675 -1929.968743 -1712.131204 -1510.467442 -1325.159871 -1156.054761 -1002.719700 -864.499978 -740.572775 -630.005279 -531.861833 -445.629967 -373.832303 18184.087950 17885.322093 15991.342817 14277.126074 13182.069725 9899.134753 5979.206403 3879.226427 -473.737781 -927.147552 3883.511211 -3262.891013 -8036.230925 -5980.990468 -4827.058256 -5071.065656 -7822.815318 -9657.775176 -8955.444207 -8468.799839 -7994.189406 -7515.099239 -7054.992696 -6628.888540 -6241.897863 -5890.754536 -5567.454277 -5262.670039 -4968.074758 -4677.526649 -4387.388911 -4096.309313 -3804.731756 -3514.330281 -3227.480451 -2946.825148 -2674.952669 -2414.181740 -2166.436382 -1933.189813 -1715.457344 -1513.821334 -1328.475127 -1159.276478 -1005.804086 -867.412915 -743.284728 -632.465092 -533.840869 -445.779083 -363.730020 40361.127449 37381.320867 35241.768240 35196.062143 32497.751692 31199.743383 29695.073976 27419.915189 23547.549662 22998.392467 23035.549263 21475.429515 19869.974219 20168.120055 17499.774680 11777.877288 15530.591203 6670.306610 254.095913 1095.055049 753.494491 135.274251 37.152295 1808.939037 6859.176633 -366.716606 -6460.558965 -4359.466030 -3765.190905 -3520.612648 -3211.813333 -2801.033997 -2318.117698 -1808.458199 -1316.758984 -878.961984 -517.902350 -242.438513 -49.517850 72.051579 137.493123 162.625797 161.566569 145.578985 122.814718 98.615537 76.080164 56.685509 40.837115 28.270510 18.169175 38934.870547 36746.447852 34871.469875 34978.895077 33192.351045 31718.028158 30019.385009 27929.380592 25403.204177 24246.167067 23434.176160 22434.511720 20916.523000 18891.741461 16477.425188 13019.132553 10917.887015 7505.813816 4295.372653 2131.184536 934.044945 248.224424 161.975103 915.185913 1728.436119 837.807919 -1431.406851 -3007.389590 -3477.150907 -3436.268874 -3175.950693 -2782.484328 -2310.855001 -1810.603753 -1326.350155 -893.457229 -534.583143 -258.922805 -64.101388 60.296277 128.812635 156.784137 158.060751 143.817710 122.238803 98.761883 76.602809 57.351267 41.518903 29.009883 19.668346 -324.354137 -301.858423 -308.386313 -287.450815 -267.265792 -256.033710 -219.005092 -217.798901 -181.446380 -181.722618 -150.126623 -150.589407 -123.782236 -124.219049 -101.665392 -102.047493 -83.172733 -83.500968 -67.778194 -68.057973 -55.019092 -55.256207 -44.490240 -44.690148 -35.839075 -36.006767 -28.760840 -28.900817 -22.993778 -23.110059 -18.314438 -18.410578 -14.533198 -14.612317 -11.490060 -11.554876 -9.050772 -9.103631 -7.103285 -7.146202 -5.554576 -5.589269 -4.327806 -4.355731 -3.359828 -3.382208 -2.598992 -2.616854 -2.003264 -2.017459 -1.538589 -1.549824 -1.177509 -1.186365 -0.897985 -0.904937 -0.682405 -0.687841 -0.516761 -0.520994 -0.389957 -0.393241 -0.293244 -0.295781 -0.219751 -0.221704 -0.164108 -0.165605 -0.122132 -0.123275 -0.090581 -0.091450 -0.066950 -0.067609 -0.049316 -0.049813 -0.036203 -0.036577 -0.026487 -0.026767 -0.019313 -0.019522 -0.014035 -0.014191 -0.010165 -0.010281 -0.007338 -0.007423 -0.005279 -0.005342 -0.003786 -0.003832 -0.002706 -0.002739 -0.001928 -0.001952 -0.001369 -0.001386 -0.000969 -0.000982 -0.000683 -0.000693 -0.000481 -0.000487 -0.000337 -0.000342 -0.000235 -0.000239 -0.000164 -0.000166 -0.000114 -0.000116 -0.000079 -0.000080 -0.000054 -0.000055 -0.000037 -0.000038 -0.000026 -0.000026 -0.000018 -0.000018 -0.000012 -0.000012 -0.000008 -0.000009 -0.000006 -0.000006 -0.000005 -0.000005 -0.000004 -0.000004 -0.000004 -0.000004 -0.000004 -0.000004 -0.000005 -0.000005 -0.000006 -0.000006 -0.000008 -0.000009 -0.000011 -0.000012 -0.000015 -0.000016 -0.000020 -0.000020 -0.000026 -0.000026 -0.000032 -0.000032 -0.000037 -0.000037 -0.000038 -0.000037 -0.000031 -0.000030 -0.000007 -0.000005 0.000046 0.000050 0.000150 0.000157 0.000341 0.000352 0.000670 0.000689 0.001222 0.001251 0.002122 0.002168 0.003564 0.003634 0.005839 0.005947 0.009401 0.009568 0.014958 0.015217 0.023642 0.024052 0.037311 0.037971 0.059084 0.060169 0.094283 0.096097 0.152066 0.155135 0.248160 0.253378 0.409286 0.418111 0.679987 0.694683 1.132713 1.156348 1.882284 1.916868 3.108830 3.141053 5.111623 5.025633 8.611013 7.546904 12.225596 10.027357 13.898042 11.462294 17671.841212 20285.166798 15630.168529 19783.670001 19095.641877 12571.518620 16640.067780 17992.100842 16669.488973 13153.093486 17081.242712 19111.867119 16892.137625 14417.214511 18123.332560 13904.821911 9537.958407 12487.787727 11912.917488 11364.830955 16592.713129 12803.282790 20114.908185 17802.968740 18980.598459 18394.798477 16371.806068 17422.216543 8871.067685 15455.616647 12943.503612 5322.542304 18198.065677 16462.995174 18204.075683 17138.388188 10000.453878 13988.865366 15750.877766 13462.609024 7859.207295 15072.592883 6636.644503 14568.437610 10856.498167 8692.630730 17453.885756 17749.103657 17555.250087 14581.827455 14539.009649 14759.899973 7877.051770 11444.218220 11849.106327 13804.681605 16076.186965 16658.668201 18487.854550 16326.496148 13392.890107 17797.304304 13641.135055 10830.726853 8870.752256 15743.804059 13190.592139 15595.915119 16358.044034 16276.929226 15736.578435 13157.279605 13186.513040 13509.999057 11014.378680 12875.103171 7171.129753 14782.281949 15334.792137 14397.390260 14743.808616 17681.576849 10459.476766 10289.564214 12549.245006 13009.904977 9139.457158 7377.391567 16720.604944 16333.193748 14503.550005 15819.070987 15056.406133 12128.674511 9907.589614 13766.773241 11005.371061 9063.029331 12414.309504 15854.484313 13658.364622 12624.820574 13702.580830 7250.030418 15176.582672 9834.815826 11244.636867 12117.171712 3444.570339 10084.056494 16725.678763 12434.993520 15907.657770 6009.530882 14466.164100 8443.171250 12115.297322 5872.919523 5959.061055 4789.964848 2935.799960 15110.191309 14810.454071 9399.883986 14403.903633 5635.353800 10880.397404 6006.085856 8656.661926 10015.013364 9370.997848 7778.219900 15269.082033 12914.374563 13486.816563 11177.201841 9578.460596 10455.931920 11812.581082 8162.730595 11586.725216 11816.970754 7632.378986 14029.325584 13331.499709 13876.337868 13706.091533 12941.928956 11252.327019 10883.279431 8726.166478 11341.526909 6089.565456 5520.003049 14705.079015 13921.367364 14491.231922 13500.202806 10322.447705 13756.141192 8950.880108 9903.289386 3222.849812 6455.471039 5351.334726 15492.667044 14164.557876 13215.786640 11876.421062 7887.876065 8151.433145 6294.095755 4751.203772 3348.448089 2360.167780 2432.055773 13310.692589 14411.795044 12909.056615 14362.534471 11621.699203 11490.056435 8622.493505 10431.068824 4918.693250 1980.063210 1163.264781 14549.553040 12027.379310 13104.196268 9363.402265 6522.813667 4208.448932 3282.965231 2605.764591 2345.974991 1534.119593 1704.990459 13492.821604 12104.302319 12004.064608 11537.970418 9112.018904 4451.299439 6625.523286 4958.633113 3920.422466 2397.692631 1704.201797 15424.553582 13494.955839 13409.440246 9306.253285 5511.238738 5593.161116 5418.797203 2647.315849 2200.206323 1427.009392 1663.472091 15809.957580 13399.261420 13439.557757 11960.444620 7138.308389 3392.664917 2475.857545 2230.249864 2019.212361 1453.495953 1563.334880 13530.983895 11811.090904 11283.632776 9796.927353 9158.462333 2204.180471 3296.237154 2038.899022 3010.249379 1991.521475 3243.344758 14899.976246 13175.952130 11853.800052 7960.635386 8603.506901 7128.335115 1621.480961 3133.315971 2640.403433 2788.697014 2591.063945 12953.849779 11905.028535 10311.145571 9752.999368 3793.837203 6186.163013 7824.043425 7314.066537 4178.509823 2720.766572 2578.755182 13369.086955 12412.997966 10123.069857 6814.550540 7520.179345 9372.502522 4899.534038 1640.105236 5142.412145 2432.645526 2352.272767 14368.832650 12021.422557 11612.621430 12555.972488 10334.667588 6405.262672 4888.238175 3765.930755 4711.432935 4576.642426 2345.482838 13314.416410 12205.678910 12291.542700 8394.391659 10938.933857 4364.525589 7636.283973 2455.848628 2777.876266 1869.802266 2908.824788 14764.531580 9880.898575 7143.496562 9827.342454 9022.152252 9705.880797 6147.403947 8431.435787 2452.559715 2736.793909 5195.877005 14304.183886 14207.357351 9946.194637 9881.389664 11639.296628 7604.598895 3529.700807 4252.470597 3933.883797 4126.675653 1201.307136 15002.236179 12696.879912 10404.198628 7217.769803 8104.201753 6729.146643 6511.174401 3283.249510 5958.950419 3580.059119 2279.573037 14931.437969 13115.716064 14015.589443 10400.471256 8099.674645 4645.918862 5665.799151 5547.137081 4429.195448 3007.059413 2491.934712 16104.058401 14203.516717 9937.355669 9815.171914 10290.764105 8536.458032 8051.469088 4766.259644 5952.749247 5027.315348 2407.069520 13763.787817 6498.944355 11742.797403 11185.808499 10969.386383 9185.871200 4258.117715 6451.394871 2894.006063 3661.711049 1480.256669 15750.576598 14450.707240 12768.209663 12328.206864 9880.063433 8048.898724 7197.776290 4980.943305 4135.134703 2246.598294 2709.069195 14296.309148 13162.074487 12317.097945 11729.225483 9499.926238 9029.936306 7380.349712 4029.800088 3198.512304 3180.207113 2092.851505 15467.539698 15490.134794 13264.383663 12731.371572 11822.341587 9754.462903 7598.201732 9214.546891 2806.418891 3497.889484 2597.363456 15940.602311 13924.039170 10378.258530 11697.056910 12515.433150 7564.127050 9092.711128 6850.007667 6078.453048 4734.831660 22118.956557 13834.115391 14766.397367 13165.047257 13168.390124 12063.329361 8369.088366 9029.981265 7697.682950 8098.632123 3734.415415 4447.387283 15672.513914 15426.223156 12872.434119 10713.147979 10245.844229 7028.763323 5888.979605 4039.007634 5874.289202 4355.562893 1435.733358 15409.191451 12686.005082 13704.877581 10063.342824 5181.512107 8679.822795 4518.887224 4275.590396 3100.610879 5439.522090 -19486.812974 16964.655368 15303.004249 15571.797947 12200.718070 11897.999154 7391.085379 5901.320693 4141.343155 7515.016522 2886.045328 3272.212409 15587.516721 13892.707704 14346.689370 11866.438798 8909.366629 8414.894040 11810.463961 5077.441747 3858.161101 2626.227172 2982.156340 16555.122883 15115.415824 14020.240398 12197.523930 11243.391922 8317.213507 8191.901109 7161.051160 4584.964320 3932.165852 4994.305696 15946.563050 14043.432650 14144.110034 15130.450987 11444.686485 10207.817274 6551.800805 5138.515039 3549.537072 4143.037410 -15319.606625 17507.922416 16061.396027 14260.918834 8366.233903 10706.685333 10206.865903 4419.196235 10515.547645 4873.864354 6516.839163 1834.424707 16481.228582 14708.765511 15453.748301 5616.785770 5816.770164 8308.568755 5859.447540 5795.195609 3848.218663 6323.794246 7799.849185 16566.782849 13545.538433 12980.342556 13727.958023 7000.863480 10108.575350 9637.378745 3882.871393 5936.152458 10765.117607 4487.638628 18215.891622 17083.155844 14061.514118 14614.664286 10941.564395 8156.866703 4572.934331 13895.281176 6318.642268 1389.847483 710.302825 18114.855026 17914.118015 15956.911554 11605.058560 8777.833674 12078.810353 13858.673505 6337.718874 9653.529572 3026.493943 3951.815717 17092.520455 16396.731946 16319.461814 13772.261885 13014.322124 11326.285889 12149.959651 7586.881733 8448.044986 5545.862081 2305.756058 18467.747001 15795.391690 18931.606292 14885.043308 13372.685946 12658.909439 10219.877479 11640.580869 7880.000934 6681.692141 3109.774279 20326.755171 19209.783298 16255.550874 14291.972274 14387.555530 10959.313738 10942.208166 9247.894226 6173.639783 4412.958297 1591.113107 19744.261401 18485.454205 18040.081717 16691.280753 15361.710977 13693.021916 9873.175183 9182.219097 8906.136131 9025.444367 3807.864279 19686.414460 20826.999274 17133.304733 16418.936546 16220.865203 13647.339394 9580.396828 8695.163916 5859.603650 6589.964588 1601.959179 20833.578158 18569.028569 18038.448884 17554.230248 11160.833816 6575.589776 6943.336878 8858.162433 2699.267223 3493.271863 10928.410428 20373.830219 20705.667139 17234.684742 15638.785114 13187.054714 11668.881668 9527.769349 5514.606689 5391.869934 4585.192119 2237.686395 20594.487518 19691.381794 17882.802505 15495.975313 11570.315018 9869.842806 10409.366594 7657.850870 5019.161495 3816.229561 10361.071163 20677.314310 20196.344882 14262.503641 13738.972761 15899.488756 13424.750991 13021.064850 10405.026419 8510.906587 5998.451440 2991.933674 21749.224102 18678.193700 16604.500179 16040.978418 13677.125734 13307.009880 12813.452883 14078.024489 8714.866886 3867.163211 2987.229851 20894.090098 18679.263466 20011.120306 16100.336775 15712.243234 15376.087734 14708.347397 10847.780076 5756.852327 4841.377407 7169.757688 19974.989407 18956.518837 17456.215013 20329.140329 15741.951773 15297.043488 8566.629464 4623.995185 5505.564871 5474.008461 -21648.659143 23867.526495 21115.512782 16403.544008 17233.107082 17877.614867 15664.692811 10334.598017 6713.660742 10187.671311 5318.726560 2261.242034 22676.829560 22717.776445 18723.371992 18166.219058 17895.334409 13884.885976 17408.117313 7971.596051 4971.225917 2202.273171 3656.515499 24642.044777 22411.442507 22118.078712 18541.434229 18807.203251 15581.620344 11000.949844 11073.406059 3413.930599 2336.792824 2387.358645 23438.534311 21456.575717 22478.572403 19894.380789 16158.006940 19484.216487 13666.497493 11225.951621 8685.598680 5594.152777 9600.393181 23833.754550 23048.004177 20463.357966 20051.697838 18153.393629 16289.839312 11797.004532 11402.944406 6918.137146 3723.131592 4586.048637 25763.514156 24700.553625 22532.547448 20415.193754 13982.879231 16705.295318 13589.030061 7346.421522 6499.122030 4579.629223 25083.209901 24707.721408 21634.578165 22575.055535 19698.408872 14533.092654 12349.494743 8312.930887 12680.308686 6218.298858 5363.699248 2403.570632 23543.138909 24065.947936 21637.798252 19711.864211 17607.790743 11098.699138 14206.840305 7962.128041 9398.367209 5573.048088 6253.650025 26541.484600 24283.242519 24420.104963 22175.615847 17626.940536 14431.266870 14250.778206 9968.988038 6096.228117 7580.254370 16837.552468 24423.163979 24258.428681 24171.066985 22348.945374 17474.578912 17556.206990 8732.549908 13357.379646 9333.384845 6517.356660 1883.987021 27256.681994 22768.616492 24212.835053 26698.584018 21058.816660 19334.466098 14931.501173 11199.959826 7085.342656 8289.582970 5300.843111 26198.937794 24629.636369 29084.310824 19960.479686 16534.698600 20206.215215 17061.684877 8843.211813 10689.249472 4048.110406 51.741825 26298.876933 25208.106926 23312.761108 24313.420275 21378.283624 18861.910779 14660.274591 8848.885324 5629.576749 1254.991571 8334.236046 28794.595682 27851.868262 26502.066844 18829.508953 21902.636986 18044.626295 16926.408578 14104.090983 8305.984812 7498.935731 3577.051368 31110.321694 27530.064972 21829.487518 24044.555135 21116.924005 14661.802258 18480.447760 8517.220579 9892.784485 15158.670327 733.841698 31943.255988 29205.066488 27086.990829 27617.770804 21704.171174 19012.802737 16808.003887 11882.825973 10137.676240 9081.593433 7592.840625 29937.669931 30524.876003 28665.574211 26537.744032 22118.059259 19454.082052 13493.166083 14845.006847 11152.215894 5421.516534 22366.408059 32650.540236 28466.952825 28583.499828 24921.464254 23555.943562 23605.520119 22609.136928 14597.275959 12359.738192 7229.211346 16486.151712 30588.451003 30730.404132 25937.502184 25219.241222 22706.911386 21168.868487 17691.144586 11252.740963 12651.149110 11597.250576 8349.868580 31740.079668 28309.926435 31185.861719 25581.988001 25161.782844 18948.029101 14448.967999 17101.876763 13810.087535 9216.904704 12989.127671 32954.908514 29938.340388 27952.222411 27442.985463 24894.438207 22636.523552 19980.407172 17862.789357 13221.326705 15244.842810 20088.624364 31508.454408 29732.580361 26735.565460 26987.875609 26261.818348 25322.376792 23396.300162 14965.965814 16727.125717 11051.837480 27256.558076 33181.297193 29609.602638 30131.502610 29484.315833 27257.028907 23065.032698 17647.697762 16900.862906 14743.181495 12145.880305 22244.264795 33238.307562 32133.692808 30888.417446 28879.810157 26519.217506 20433.134858 21881.992551 17816.738742 18835.481566 14705.250998 8780.079357 32767.148134 32047.048674 30107.580492 31987.218815 26571.487201 21399.964708 19484.111077 19203.562114 7548.245696 18869.843968 16125.359809 35592.795099 32158.734289 31408.250740 28724.671788 23709.703450 22932.379543 21505.006402 17044.386080 15621.192799 21127.068347 21676.014733 34676.419364 31505.345942 28195.632088 30484.823934 24381.876257 28993.846088 21327.782580 14995.459221 18793.009073 5578.271551 -4179.244052 34601.128140 34384.215513 33166.996442 30790.283018 26462.188795 27500.751965 24126.726872 20021.301987 23375.602963 11149.779692 10517.367036 33554.365132 32700.304521 32004.824435 30604.837176 24559.742493 27455.419368 21865.527617 19520.376740 12609.987302 17219.543705 -927.756782 35864.187615 36489.063692 35296.451034 31176.741434 31797.777401 27192.585361 21330.283891 23434.897345 24802.572746 17999.729828 21578.884027 36933.609119 35633.184427 30750.130735 35378.965452 26203.856096 28159.196977 20671.745174 23271.013453 20765.120450 13718.511655 19186.284086 36732.624901 33333.223409 35644.755780 34358.209749 32761.946427 27298.121128 24560.178255 25267.381748 19780.572290 13089.967228 20043.111554 37216.368181 38051.194606 34462.322643 34282.031728 31200.855758 28582.557258 28081.372178 25498.183361 22898.633448 19828.228327 -4179.244052 36964.054788 33674.467739 35271.660822 27307.942017 32135.593613 30726.388638 25571.641355 27380.649156 22036.100998 15995.159240 23578.989838 39180.965843 34918.023068 36259.138345 33430.933294 32069.923737 30232.616820 24989.664671 22650.395449 19481.471021 20335.669177 19928.539420 38278.619186 36622.244854 34729.691699 30182.763978 29744.532996 25778.739564 27036.806796 19354.816551 25417.162299 21707.713382 -18067.270861 35427.700145 37928.426691 38297.836409 38289.029336 28150.565237 27326.123040 22997.572138 27421.626124 26132.859207 25341.875438 25650.819315 38053.374665 32568.881208 34658.709014 36478.899826 37614.607625 26165.358516 34481.712048 23752.736088 22952.703666 22265.940163 22621.773729 38694.772215 38797.593815 38431.105912 39273.686933 30602.592591 35844.372725 32459.877209 20423.062375 21765.443307 25041.402502 23477.822225 39497.108477 38637.025088 33991.944493 38940.553479 35021.830038 28467.333396 36663.481721 35202.570307 24561.738641 20755.732242 21012.349123 14089.074320 18182.902814 18587.385605 15360.858735 10849.595253 17004.093546 13811.905538 12454.701381 15279.703098 13100.418956 10045.044732 8992.716438 3350.493814 -3404.438642 13717.441274 11043.624653 15207.128492 16287.435703 5163.548444 18440.835580 10882.450923 7770.457902 15584.331759 4560.414045 7961.736357 6593.816989 3998.030102 7876.582147 6802.191682 11514.579823 9322.917909 7356.687572 8434.718189 3503.192158 10402.284043 8549.313280 11573.753858 8331.814034 4395.928212 6770.292398 5062.192048 3234.042295 10031.326816 8947.678054 11668.377291 10267.131742 7674.092003 8843.315656 11234.790633 9635.772523 5587.609682 10254.001385 9260.293146 6507.652652 3820.698718 255.267685 10830.621235 14156.988969 7900.158863 6892.418028 12869.984924 7946.270342 9368.586670 10095.639392 6607.485219 3414.933824 6836.841801 4302.133415 4840.481703 -59.089022 7954.679373 11351.517735 7383.079777 15237.567971 11889.349828 10817.172145 11484.359767 5524.886336 5350.814123 6636.073093 7098.554523 4563.077946 7050.111433 3536.899675 15638.929757 3497.230478 7759.375077 6432.057343 3444.363257 8012.771141 8865.320468 8809.781869 5550.833624 4971.877431 5809.985587 3684.821686 3873.406962 2134.703084 6733.376344 6597.541561 6553.887663 10061.878867 6477.646754 11133.466981 6331.220637 4734.550371 2057.229058 4339.138805 4177.193238 5331.680112 2747.618728 2978.983902 9303.790807 9959.993987 5610.681085 4495.800992 8013.509293 4106.502601 5757.038009 4788.953539 2701.398997 6766.052069 3687.760211 4317.784212 2626.746001 1962.089671 4953.910339 5867.735886 8232.150251 5446.626401 8173.475865 3486.121355 6781.488610 4579.994736 8232.413853 3749.370417 2900.113381 2147.113570 2566.394778 2935.074804 2839.609820 5444.281426 10339.338141 6334.876917 3338.148394 3813.450902 3420.349485 7162.660552 5637.136908 5320.905744 7852.416275 3554.641535 4147.300181 3580.720015 6552.910436 2473.156469 5114.097152 10679.617671 3010.053874 6013.696388 2630.343848 7352.601526 3062.431166 5730.689328 3900.626471 9332.253018 2214.393976 3290.427625 2793.301390 1922.460835 1780.826738 3822.990110 2206.500744 1892.105041 3461.303392 9140.066452 10260.774106 5426.227427 1813.481106 2410.205389 1865.593678 2426.490314 1909.919709 2188.323340 2630.638943 2524.896215 3047.328033 1786.738576 2862.397796 5150.623716 2212.363768 6855.794807 3711.260537 2219.225849 2121.402725 1969.636402 1824.198774 1828.223001 1290.805161 1294.082179 1535.557258 1033.304628 4500.069235 2379.242978 1850.933861 2213.832660 2316.598235 2000.331318 2572.665140 1363.063621
</DataArray>
<DataArray type="Float64" Name="Velocity" NumberOfComponents="3" format="ascii">