<VTKFile type="PolyData">
<PolyData>
<Piece NumberOfPoints="1945" NumberOfVerts="1945" NumberOfLines="0" NumberOfStrips="0" NumberOfPolys="0">
<PointData>
<DataArray type="Float64" Name="Pressure" format="ascii">
 15407.074986 13440.172024 11237.533698 8755.891728 10546.075369 7472.756788 14680.307090 16054.872601 14842.031257 15037.400093 15216.775944 14798.601688 15758.878554 15342.736620 16541.710241 15815.418647 19597.454505 18508.210702 21364.393913 20817.289734 22765.861044 20306.506443 22247.142578 20295.719938 24005.931190 23711.640344 25041.820755 25477.268929 25385.966401 25034.721846 26065.096164 24181.452474 26938.391333 23947.652960 28335.413482 25010.020662 29377.669992 26463.541668 30309.669498 28209.752268 30785.260772 29313.604825 31032.073539 29633.067670 31031.346612 29249.546091 31051.604609 28705.827564 31220.575329 28381.225705 31663.761523 28789.282425 32255.111916 30097.397764 32756.703636 31677.924671 33009.828408 32847.700478 33082.374517 33605.762657 33116.296335 34093.820538 33210.146078 34027.858724 33383.450209 34078.809713 33690.765187 34110.674021 34088.818390 34257.053308 34554.796094 34550.469486 35059.035916 35061.900809 35556.496771 35796.423262 35999.807196 36731.533315 36342.927500 37785.815689 36560.460726 38828.928667 36642.887245 39772.198227 36587.434557 40523.799060 36405.008222 41051.424808 36120.125099 41382.537729 35757.850262 41540.517864 35341.057457 41529.475855 34890.560324 41366.821935 34429.724055 41098.596317 33982.182495 40769.947311 33569.000151 40423.449981 33210.389097 39930.516228 32898.855841 39554.152053 32654.453221 39205.225280 32473.307381 38899.013966 32347.232366 38626.923419 32266.549582 38378.354742 32220.914326 38143.325767 32196.682930 37908.137958 32177.910244 37660.055019 32154.194490 37396.237368 32118.206938 37117.256252 32063.693292 36823.697508 31987.145253 36521.944258 31887.091667 36216.959561 31763.955768 35913.316810 31619.506391 35613.296419 31456.241228 35322.633684 31275.569695 35043.085397 31081.812594 34777.227457 30881.856344 34532.498897 30678.056695 34305.223880 30470.561684 34083.338896 30259.552783 33854.218167 30043.702306 33622.918059 29816.579067 33383.528332 29578.166111 33148.727009 29321.568087 32893.342659 29047.404326 32766.851880 28773.115069 32520.089780 28487.183641 32301.037265 28193.910413 32109.551468 27899.368124 31950.004913 27612.148615 31842.754389 27340.216041 31774.636085 27093.052723 31795.889913 26858.908368 31796.662232 26654.185118 31860.154371 26476.692813 31918.404338 26312.175999 31928.618035 26158.329324 32010.088166 25961.386482 31818.264106 25821.948045 31968.504050 25596.024206 31600.065998 25445.254267 31952.221886 25218.829318 31553.394772 25006.940085 32055.898462 25038.171523 32078.461093 25917.405147 33306.150832 25956.959750 33640.340506 27474.782079 35357.517151 24530.100733 30257.609072 23577.949203 32477.669357 18107.286633 30432.231165 11416.597275 15580.648755 13549.400706 12365.303528 10334.069725 9681.964416 10324.651407 9553.043502 9527.847692 9393.963165 8977.811050 8760.385086 8559.390521 8173.765137 7579.480364 6853.896053 6019.074639 4883.712568 3799.058235 3164.284442 2086.684058 885.276319 49.657190 3509.688980 -2779.069245 -6150.828484 -4899.737997 -3938.023125 -3225.389275 -2635.923750 -2112.692364 -1644.967076 -1238.664879 -900.794801 -632.882764 -430.111386 -283.208581 -180.992558 -112.459057 -68.048074 -40.158510 -23.145888 -13.044954 -7.197314 -3.891335 -2.063612 -1.074298 -0.549441 -0.276254 -0.136606 -0.066388 -0.031532 -0.014506 11752.215610 11262.781194 6476.485981 6210.846327 9775.166165 7475.890412 9711.290651 10057.339293 9801.760530 10381.968573 10976.455865 10514.257315 9417.662913 8531.783137 7964.068228 6624.724483 5209.615068 4917.173901 3556.348447 867.417689 -8413.322775 2461.142816 -5338.878051 -8234.310678 -4742.135675 -3915.469418 -3240.544899 -2650.166434 -2125.021554 -1657.695200 -1252.411415 -914.834217 -646.103472 -441.627683 -292.575831 -188.173424 -117.687734 -71.687180 -42.591763 -24.715349 -14.024761 -7.791006 -4.241297 -2.264694 -1.187108 -0.611325 -0.309488 -0.154090 -0.075377 -0.035867 -0.015329 30724.118131 30235.035586 27708.083970 32052.668192 26186.430055 21615.456541 15865.263786 12405.676623 9326.301279 733.008364 -3981.014630 -2259.628272 -1240.250082 -647.997120 -267.486154 -69.600652 9.464838 26.739587 19.693875 7.830012 -1.195206 -5.900717 -7.241208 -6.653702 -5.281309 -3.812612 -2.567608 -1.637089 -0.997694 -0.585037 -0.331697 -0.182508 -0.097741 -0.051069 -0.026084 -0.013045 -0.006397 -0.003080 -0.001457 -0.000678 -0.000311 -0.000140 -0.000062 -0.000027 -0.000012 -0.000005 -0.000002 -0.000001 -0.000000 -0.000000 -0.000000 16968.422081 16925.615848 15180.767617 14322.223563 12247.037569 9758.904678 7455.965085 5972.250695 4743.211140 1292.825387 -1251.290160 -1613.060020 -1187.232447 -669.852327 -300.717590 -94.948075 -5.287971 19.996753 17.606313 7.867035 -0.506153 -5.233900 -6.805543 -6.443960 -5.224733 -3.836706 -2.621925 -1.693683 -1.044586 -0.619389 -0.354882 -0.197230 -0.106646 -0.056241 -0.028985 -0.014623 -0.007233 -0.003511 -0.001675 -0.000786 -0.000363 -0.000165 -0.000074 -0.000033 -0.000014 -0.000006 -0.000003 -0.000001 -0.000000 -0.000000 -0.000000 -0.007075 -0.004094 -0.006538 -0.003900 -0.003910 -0.002757 -0.001630 -0.001544 -0.000741 -0.000763 -0.000343 -0.000363 -0.000158 -0.000170 -0.000073 -0.000078 -0.000033 -0.000036 -0.000015 -0.000016 -0.000007 -0.000007 -0.000003 -0.000003 -0.000001 -0.000001 -0.000001 -0.000001 -0.000000 -0.000000 -0.000000 -0.000000 -0.000000 -0.000000 -0.000000 -0.000000 -0.000000 -0.000000 -0.000000 -0.000000 -0.000000 -0.000000 -0.000000 -0.000000 -0.000000 -0.000000 -0.000000 -0.000000 -0.000000 -0.000000 0.000000 0.000000 0.000000 0.000000 0.000000 0.000000 0.000000 0.000000 0.000000 0.000000 0.000000 0.000000 0.000000 0.000000 0.000000 0.000000 0.000000 0.000000 0.000000 0.000000 0.000000 0.000000 0.000000 0.000000 0.000000 0.000000 0.000000 0.000000 0.000000 0.000000 0.000000 0.000000 0.000000 0.000000 0.000000 0.000000 0.000000 0.000000 0.000000 0.000000 0.000000 0.000000 0.000000 0.000000 0.000000 0.000000 0.000000 0.000000 0.000000 0.000000 0.000000 0.000000 0.000000 0.000000 0.000000 0.000000 0.000000 0.000000 0.000000 0.000000 0.000000 0.000000 0.000000 0.000000 0.000000 0.000000 0.000000 0.000000 0.000000 0.000000 0.000000 0.000000 0.000000 0.000000 0.000000 0.000000 0.000000 0.000000 0.000000 0.000000 0.000000 0.000000 0.000000 0.000000 0.000000 0.000000 0.000000 0.000000 0.000000 0.000000 0.000000 0.000000 0.000000 0.000000 0.000000 0.000000 0.000000 0.000000 0.000000 0.000000 0.000000 0.000000 0.000000 0.000000 0.000000 0.000000 0.000000 0.000000 0.000000 0.000000 0.000000 0.000000 0.000000 0.000000 0.000000 0.000000 0.000000 0.000000 0.000000 0.000000 0.000000 0.000000 0.000000 0.000000 0.000000 0.000000 0.000000 0.000000 0.000000 0.000000 0.000000 0.000000 0.000000 0.000000 0.000000 0.000000 0.000000 0.000000 0.000000 0.000000 0.000000 0.000000 0.000000 0.000000 0.000000 0.000000 0.000000 0.000000 0.000000 0.000000 0.000000 0.000000 -0.000000 -0.000000 -0.000000 -0.000000 -0.000000 -0.000000 -0.000000 -0.000000 8499.118647 12091.538302 11507.616460 10220.942918 9940.283352 12187.384946 11228.473384 10133.376387 11077.934901 11084.670027 11657.170296 16281.635332 12649.624247 11442.351846 11464.850648 9864.032527 9036.756803 11372.611535 11077.599187 11447.952533 11585.116723 11344.948262 14589.700335 12998.034576 14847.442886 14968.605558 14444.542192 13443.980483 14519.718545 13385.283205 12976.904941 12840.958200 12706.388510 14102.545691 17956.078573 13743.716415 13938.834510 13144.673653 13006.821895 13388.821024 13011.625608 13715.038998 13550.858354 12988.622362 16593.601333 16863.932912 17170.081240 15242.282141 14925.114332 16579.734658 15035.591828 13511.079684 13815.418249 13136.550439 12626.311734 16704.219087 17700.904753 16897.195959 16185.485966 16342.702223 15557.766944 13592.582222 14849.342554 14629.996794 14358.496330 13413.038617 19439.303703 19254.855532 19035.946050 16757.520534 16346.010339 16068.216035 16756.145379 16802.913930 14895.089582 13249.724463 12641.079798 19917.807599 20675.520261 18383.825319 18872.887770 19409.620720 18520.872356 16434.415376 14372.010152 14514.376882 15727.993818 15408.289901 23111.810521 20924.034599 20927.384526 21275.868141 19538.936133 16811.844914 18072.013763 19748.254122 18179.600768 14022.074410 12246.596067 23157.572711 22205.254109 24006.062388 21808.770144 19610.557905 21885.123936 21753.877786 14756.799041 13251.590183 17281.650072 17544.823046 24088.164872 23845.990253 23562.067997 22101.423006 23587.850993 20699.203766 15250.518962 19109.387328 21422.666068 14043.754876 10734.333706 24516.947112 25294.989894 24083.791316 24124.674198 21584.991164 19039.868221 22590.924682 19707.198663 10298.668781 16550.766142 19821.228688 25417.153232 25891.819220 23899.777193 23654.023827 21817.566469 23087.968018 18546.121993 15594.099641 24392.721869 14642.850176 12821.693418 26632.790441 26397.902014 24009.732291 23954.911650 22542.451703 21071.498923 18156.001116 23979.206459 10775.050787 24919.273541 25699.478382 27696.022542 25868.408593 25458.973599 24650.037563 20927.073623 21831.127672 19684.902934 17563.549279 17489.201606 28031.229027 16214.766680 27960.225912 25630.907509 27052.776187 22816.536433 23020.232352 23986.407368 17667.275061 24722.344628 15900.834273 27392.850046 16700.453343 28221.676430 26835.727786 27681.296581 21310.769541 25957.639858 18920.675659 24573.934389 18436.608303 23732.849256 12169.351923 -12788.333478 28260.919444 27935.412982 26695.572542 23151.070979 26015.813421 17156.067144 26288.520322 16435.937150 23738.543395 24117.082487 11654.623469 28632.993198 28867.274047 25662.739525 25616.818629 22638.525577 23196.677716 18465.915593 25584.676139 6424.265363 21036.852725 -10720.001439 28930.745316 29255.110133 25745.536719 26475.604505 21031.270080 25985.270939 13888.336797 21745.768074 21714.610906 6920.690238 9046.422269 29013.622086 29354.972598 26479.695007 25721.555737 22446.804113 22638.083218 19712.508585 16449.069978 23921.234187 7522.152799 -11466.005468 29153.587886 30058.457298 27528.105389 25267.874780 24170.146565 19742.882879 22054.682983 12841.835413 20879.515996 16923.931165 24565.961637 29641.174948 30713.677966 28334.934682 25611.798105 24488.516264 20028.515149 19846.393598 17283.450623 16849.774731 16053.095074 25154.857867 30738.765632 31253.110944 28918.025087 26177.816144 24349.812870 20937.271767 18153.244297 19196.223214 10798.448309 14855.015665 19351.724678 32070.726452 31761.106409 29478.817508 26541.335016 24195.324992 21248.396326 17596.732698 17984.860941 8786.307603 15785.194282 18082.099281 33187.956971 32098.129353 29897.101954 26791.555265 24053.820918 21142.049360 18056.619860 16105.275663 11515.654208 12257.677096 19189.030158 34080.724683 32308.783291 30238.860795 26900.626446 23990.893716 20882.694951 18225.715034 14514.038272 13462.461595 6968.319742 18310.970184 34809.496121 32522.861491 30551.292038 27074.302596 24006.155179 20674.489301 18088.420670 13851.079786 13155.081608 4608.169199 16921.337591 35290.729768 32910.064531 30922.470651 27479.814732 24313.653386 20989.561546 17934.951768 13944.193494 12201.934736 4656.914966 14145.599200 35999.887598 33652.370301 31574.028809 28240.994251 24933.345578 21639.377380 18023.736141 14595.004473 11584.352278 5265.871552 10120.736219 36929.054748 34616.274734 32446.129582 29395.605932 25837.133553 22625.089190 18653.922760 15666.736294 11563.338815 6034.146184 7179.394143 37947.565546 35597.285835 33379.139144 30707.478073 26981.660762 24117.731656 19729.940937 16907.520020 12035.192163 6729.287069 5922.289515 38821.415406 36453.343139 34282.833003 31953.976851 28078.463573 25768.526257 21097.907162 18216.701461 12814.103756 7380.644456 5600.838701 39574.771409 37125.333906 35037.700414 33002.805312 28913.305945 27147.092151 21865.876749 18924.689765 13398.614124 7846.357434 5630.449934 40280.070372 37661.887744 35607.008973 33789.776720 29450.274756 27695.681239 22250.821521 19472.126323 13757.691325 7978.377691 5673.294535 40993.998251 38135.644790 36059.346283 34374.634052 29707.449644 28086.147203 22790.145053 19440.654232 14087.936002 8120.561704 5698.471571 41814.608751 38660.030539 36465.836247 34872.097490 29874.877350 28274.422457 22958.440979 19575.076523 14307.912959 8091.688495 5535.255729 42717.585465 39276.436829 36906.799329 35373.675601 30126.415956 28478.190494 23225.875038 19662.269777 14394.672281 8216.841240 5364.070616 43614.016172 39954.215935 37409.952904 35915.085996 30509.361454 28765.623765 23634.549622 19861.397556 14645.584123 8287.936143 5350.310793 44426.878274 40624.044894 37930.641266 36475.569288 30996.850499 29117.766604 24122.098569 20125.621561 14943.720487 8438.919261 5385.222159 45055.450726 41228.624372 38423.407858 36984.322419 31505.411206 29471.798260 24612.525595 20397.516548 15221.142524 8591.265748 5418.519581 45472.148185 41711.102133 38821.308416 37370.858102 31944.105119 29753.765448 25023.848932 20612.121053 15432.110982 8710.192285 5430.760615 45692.318592 42000.171109 39069.809756 37612.052748 32253.509098 29912.924616 25304.136403 20728.272003 15549.287532 8775.765469 5413.333209 45742.229144 42108.828647 39169.200908 37700.032138 32408.906961 29934.999095 25440.824708 20738.727119 15572.183115 8786.169278 5368.236506 45634.276639 42072.267139 39128.100324 37639.128977 32421.857591 29836.600596 25450.042351 20658.749329 15517.081388 8750.828076 5302.720269 45395.876587 41922.900076 38964.312834 37460.937710 32323.614882 29646.300021 25360.619054 20512.758846 15406.186296 8683.062275 5225.075018 45074.465088 41684.210034 38703.429537 37203.446571 32144.195852 29392.627820 25202.391152 20324.368879 15260.057273 8595.205876 5142.243886 44703.276938 41375.753975 38374.566923 36894.739221 31908.152472 29100.400044 25000.035317 20111.837412 15094.492066 8496.606097 5059.057709 44319.666710 41034.975341 38008.517648 36553.170003 31636.011149 28789.059652 24771.772927 19888.110735 14920.743422 8393.740460 4978.549034 43889.033727 40669.450875 37628.451798 36195.026563 31344.936316 28472.902999 24531.184780 19662.657591 14746.885484 8291.108994 4902.595684 43482.921539 40296.226271 37252.510091 35834.690731 31049.065293 28162.689800 24289.116669 19442.898994 14578.969081 8192.035345 4832.436686 43044.142270 39940.319801 36890.399815 35484.345054 30760.076349 27866.581494 24054.364760 19234.726409 14421.587989 8099.076400 4768.928935 42640.857798 39612.993306 36549.139976 35154.332800 30485.959875 27590.271002 23833.594115 19042.417702 14277.971919 8014.092648 4712.604488 42269.521421 39316.400989 36233.574906 34849.000417 30230.153023 27336.927078 23630.968805 18868.353300 14149.875544 7938.155739 4663.635736 41924.130897 39049.522680 35944.828287 34570.005956 29992.897677 27106.707110 23447.755542 18712.817127 14037.478074 7871.438488 4621.784938 41594.928906 38798.565509 35673.270933 34315.992295 29771.829291 26896.807609 23282.267467 18573.971069 13939.386511 7813.166081 4586.376219 41276.317774 38556.859385 35408.037520 34080.246369 29561.303055 26702.262417 23130.256497 18448.047230 13852.783571 7761.668456 4556.310187 40967.592566 38326.008334 35146.018947 33854.792618 29353.516681 26516.864259 22985.636697 18329.854179 13773.762933 7714.561428 4530.139242 40669.558338 38099.952833 34881.060480 33632.501103 29141.077548 26334.316329 22841.523905 18213.619346 13697.870604 7669.072297 4506.218961 40375.535571 37863.215591 34607.475286 33409.351506 28918.468786 26149.483506 22691.555834 18094.051781 13620.802607 7622.483912 4482.930698 40081.381028 37610.196650 34327.964614 33183.423769 28682.709637 25959.685916 22531.213633 17967.430859 13539.144307 7572.613695 4458.932793 39790.458787 37342.182854 34046.925669 32953.309367 28434.522451 25765.340029 22358.686818 17832.443723 13450.977820 7518.214330 4433.374994 39502.253144 37059.784890 33768.765302 32719.478305 28178.461822 25569.519722 22175.071911 17690.444260 13356.121514 7459.164629 4406.012330 39216.440636 36767.538856 33499.894217 32484.303465 27921.615250 25376.939434 21984.013829 17545.097780 13255.930215 7396.370543 4377.160169 38929.464276 36467.418584 33243.651308 32250.453541 27672.031297 25192.325003 21790.487851 17401.399435 13152.790487 7331.473356 4347.501183 38645.669683 36165.294327 32999.701816 32018.634246 27437.126409 25019.376350 21599.449118 17264.211015 13049.326318 7266.466046 4317.863176 38372.416302 35876.264450 32772.487112 31788.430471 27220.624118 24859.362545 21415.072584 17137.284680 12947.659468 7203.245409 4289.027729 38108.448959 35602.011850 32563.479675 31562.400961 27023.729907 24709.950003 21239.270277 17022.466899 12849.133866 7143.332347 4261.536960 37854.431244 35329.807751 32357.424053 31338.232187 26845.164114 24567.677333 21072.061962 16918.967799 12754.044748 7087.803432 4235.589186 37605.702791 35059.648743 32151.951463 31111.411105 26676.553296 24426.496997 20912.559531 16824.147111 12661.452460 7037.052264 4211.069848 37347.927077 34789.964543 31947.591879 30880.687555 26510.899973 24279.271561 20757.637559 16734.106670 12569.576153 6990.467185 4187.483241 37063.020040 34512.579585 31735.194725 30640.588158 26342.025880 24121.685826 20603.536411 16643.572760 12476.121653 6946.481295 4163.771092 36765.329231 34236.709611 31511.050003 30389.255026 26165.280867 23949.209637 20446.961864 16546.702322 12378.037127 6902.616415 4138.254713 36476.848680 33965.195194 31267.174759 30125.878112 25980.543656 23758.929652 20284.381006 16438.416324 12271.997940 6855.670838 4108.669714 36202.249855 33697.986046 31012.859933 29855.920416 25785.521927 23551.152397 20112.625823 16314.438529 12155.211358 6802.690145 4072.664161 35845.499132 33433.234891 30755.876433 29581.745094 25576.520992 23326.579797 19929.415291 16171.737359 12025.331940 6741.093300 4028.517821 35555.110707 33170.402700 30499.543637 29308.052985 25358.630294 23089.285003 19734.076157 16010.418488 11882.851782 6669.726666 3975.265341 35262.851859 32901.132035 30242.389825 29035.456105 25133.337921 22843.790376 19529.119438 15831.513468 11730.232295 6590.587644 3913.398928 35013.983174 32644.403869 29994.728943 28771.781314 24905.606191 22590.132278 19317.656866 15639.223592 11569.634012 6506.211445 3845.246124 34793.890490 32398.189128 29761.139582 28521.803703 24691.045869 22346.094418 19107.213251 15444.376481 11408.456291 6419.850659 3774.054970 34598.493847 32165.190847 29552.513779 28274.387337 24471.381299 22108.802435 18895.588473 15247.322003 11250.938580 6335.664008 3703.102828 34451.695664 31975.011312 29395.993817 28063.579173 24279.711954 21893.582240 18702.658300 15059.784159 11100.055670 6257.231067 3634.322062 34311.192517 31760.367125 29230.620104 27849.736121 24100.422332 21686.186162 18520.136921 14884.909563 10956.976802 6186.119775 3569.864027 34261.457774 31632.821574 29137.261558 27662.876083 23937.987647 21488.035191 18339.221250 14717.401896 10819.699934 6117.751754 3511.959632 34144.045800 31435.041358 29014.183911 27475.525390 23801.003432 21326.936893 18194.212535 14573.328311 10695.795790 6050.188184 3456.386847 34084.942961 31333.495400 28936.209081 27290.528536 23638.865213 21099.065778 17994.718057 14397.233908 10565.686481 5985.785240 3405.208692 33973.629990 31166.824421 28803.825557 27088.600354 23542.766061 20973.687558 17896.468552 14274.928304 10439.766630 5907.738315 3352.285022 33777.316336 31015.960389 28692.858768 26867.404679 23351.669041 20669.904844 17636.588115 14071.023131 10307.233724 5841.973846 3294.500756 33685.989430 30906.082287 28551.297588 26667.769284 23283.556172 20576.183671 17571.373952 13929.866899 10143.281139 5742.720771 3249.305277 33260.616339 30625.886995 28335.355905 26394.508020 23051.964331 20192.825911 17294.940192 13763.560193 10040.352620 5651.325702 3159.911921 33281.826704 30719.964171 28274.179785 26260.540242 23072.487594 20130.367305 17168.891471 13485.075607 9837.047702 5622.307967 3137.625215 32587.244486 30033.609365 27796.460698 25867.220163 22700.167037 19727.328446 17073.663376 13491.105516 9678.974163 5356.217915 3070.274461 33013.399048 31011.566250 28312.913645 26128.719082 23090.807597 19807.687950 16796.220710 13128.050951 9844.335530 5554.091030 2990.302242 31911.788564 29258.831818 26975.310908 25275.567460 22250.565035 18995.766389 17077.810325 12893.966009 9054.211987 5317.154435 2929.774550 32809.643846 31196.991821 29196.934338 26700.801573 23972.059711 19993.471324 16619.353923 13797.254047 9908.506588 5353.892657 3151.639568 32076.501099 29780.950385 26184.704706 24413.442645 21286.531593 19254.792060 16153.383587 11680.155330 9181.041636 4884.661660 2874.009727 32110.479436 31444.695095 31931.974468 27124.813982 24942.903760 20309.144844 18804.082899 13937.673999 10021.731996 5736.133068 3061.749288 31568.973698 29445.138878 30437.161943 25026.623750 22036.368029 18308.855843 14779.558402 12924.767555 8255.953396 4544.400810 3454.374841 33435.716458 27149.951004 34202.941626 29562.834911 27649.512455 21540.003966 19003.935692 13357.344619 9394.174722 5895.961450 2563.213922 35716.380720 29626.658831 30519.556549 25434.771212 24658.946998 18549.273460 17968.667418 12410.359141 10545.309704 4707.085144 2303.660607 30899.735723 35037.490221 28562.212270 26944.044146 24425.872867 18385.051767 17614.180476 11334.658963 7524.691748 7319.843622 3838.373164 11682.882095 11125.938068 10586.027408 10068.434745 9412.703644 8510.402653 7632.981325 6746.294253 5904.854905 5016.595417 3901.918131 3138.104276 2401.006461 3190.249485 11411.981346 11023.553833 10566.220978 10008.691035 9401.604176 8686.103969 7910.850589 7187.284847 5913.729366 5047.162294 3762.402209 2947.567120 -450.888465 1595.267136 12353.433556 11790.206253 11333.533198 10869.070521 10262.291095 9589.372921 8720.307252 7766.954275 6702.677571 5593.011746 4222.231279 3164.625188 1958.025440 831.622986 12402.384744 11868.406337 11139.127939 10319.256549 9581.189543 8843.584728 8188.946004 7232.219088 6451.996818 4949.931970 4342.153399 3010.665030 1431.877966 684.145900 12206.425371 11904.342188 11357.522613 10767.118055 10226.369578 9398.985557 8836.374240 7709.312031 6854.031673 5936.166443 4382.692078 3167.235398 1868.592417 729.956854 12090.734565 11638.507745 10816.225360 10039.214999 9585.921758 8836.074688 8156.541419 7445.044040 6103.483172 4792.049004 4174.133687 2919.069139 1468.466234 637.290039 12912.651176 12468.248565 11748.106007 11071.280896 10215.947198 9322.279269 8345.595205 6976.721958 6132.019480 5045.335632 3862.281757 2784.300463 1506.900922 498.356652 13149.405650 11715.072052 11261.223533 10648.935685 10007.669868 9111.057067 8294.942694 7187.266288 5672.091675 4127.372993 3224.020251 2298.824705 1037.745592 303.760764 12789.471731 13531.916016 12884.037547 12030.933525 11458.150503 10513.405593 9034.314927 7231.417557 5758.454867 4428.797452 3289.873414 2357.689955 1102.843302 243.568608 14156.514892 11522.317326 11069.339437 10947.485864 10384.345096 9769.536932 9311.303589 8579.476920 7039.899479 4838.609213 3338.663391 2463.735909 932.556644 115.560388 15449.408721 15735.893755 13547.255822 12666.307994 12240.107518 11995.566593 11032.919534 9422.800743 7746.912553 5981.116223 4342.161993 3268.950983 1308.332708 429.978847 7697.591684 16098.624586 13935.785712 13739.158509 13146.769991 12420.826405 12368.735429 11619.627982 9783.518642 7776.631026 6156.761365 4823.586381 1393.915965 637.160678 23855.877150 16051.791041 9035.496076 13546.327390 13528.007798 12349.180179 10585.715015 9650.636200 8903.429019 8583.021721 7967.227642 4660.822536 1617.434793 1355.406447 21402.951570 9063.204793 17794.908969 25861.152162 -1505.606927 10234.190114 20820.137335 15125.790203 11711.164287 9438.120584 7464.668185 2751.286561 3555.040746 2348.415701 12018.306144 -17109.833995 15354.287278 15238.869150 7694.169620 -3829.732656 5083.077400 10989.788511 10476.689096 11036.524810 9976.999611 7861.149218 5556.201353 3862.821450
</DataArray>
<DataArray type="Float64" Name="Velocity" NumberOfComponents="3" format="ascii">