<VTKFile type="PolyData">
<PolyData>
<Piece NumberOfPoints="1945" NumberOfVerts="1945" NumberOfLines="0" NumberOfStrips="0" NumberOfPolys="0">
<PointData>
<DataArray type="Float64" Name="Pressure" format="ascii">
 16213.403338 16713.972352 15481.494722 16776.955274 15936.044847 16426.529581 16475.127784 16360.694773 17551.297520 16642.738868 18427.386094 16885.348292 17295.982363 15903.282000 17473.518484 17516.310617 17525.574241 16675.248633 18501.012893 17537.640342 18229.999121 18163.960574 18729.664121 18838.865325 17767.660945 17287.972739 17758.510647 17656.078364 19931.266038 19901.888609 18686.340302 19020.633661 16153.992084 16353.513393 18277.167567 17710.476915 18193.330612 17143.564862 19026.952731 17827.198697 18064.427178 16894.956140 19471.635008 17781.379200 18362.453000 16683.789280 21518.389857 18931.972387 18333.894279 17329.211234 19089.699482 19454.658960 18425.683055 18961.079756 16030.679230 16389.439673 18599.828933 18083.089840 15635.948403 17384.767824 17401.976860 19376.588297 18390.806192 18607.608749 22017.602895 21119.552367 20248.269783 18901.101839 24400.282062 21317.478476 22841.170865 18954.109511 24166.398304 20466.484694 20905.092985 19210.909500 22437.418810 20897.176484 18244.849977 19720.823443 19662.001751 21882.627296 19171.440473 20492.963261 22000.937187 21880.896842 21478.547588 22303.609768 23293.420226 23321.740800 23275.034421 22104.621701 21660.876927 22077.950606 23450.524229 22606.822558 24804.742735 22513.038806 22971.868923 21991.096317 22311.380866 21528.338346 23159.623517 21163.954195 24269.279039 22054.084178 21278.509382 21404.400205 22072.421838 22013.875644 23605.842897 22486.468901 22455.037400 21784.492600 22338.995581 21375.617462 20602.978872 20015.696514 21006.322847 20639.436609 22566.711033 22644.875068 22161.446932 21905.825737 22438.635258 21211.366741 21404.954846 21118.033536 21008.960909 21050.468553 20991.633600 20822.474268 20439.518353 19910.297983 23137.051557 21620.410663 22398.773948 20466.402262 20978.566279 19878.761008 21559.268188 19951.184630 19720.629172 17780.349335 20868.584711 18635.051758 17769.349091 17852.013057 18434.944869 18778.409416 16965.130533 17361.422960 17372.452549 17095.897503 18096.046164 17124.385992 17905.844182 17175.312630 19174.532711 18043.953057 18269.164522 17086.724111 19439.535487 17898.417215 17889.357819 16607.860982 19197.635609 18049.287978 17466.063403 17496.008008 18261.718559 18304.389223 18019.753265 17621.965983 18448.767290 17461.267438 18677.078936 17180.621791 19450.753436 18098.651066 19223.749045 17956.651571 19357.987480 18441.175212 19150.061764 18735.446773 18413.116162 18854.736176 19202.251340 18876.525337 19773.943484 18706.002721 19254.202595 18530.617923 18963.640809 18666.935969 18524.484099 18389.068426 19113.478955 18696.550987 20190.887997 19040.514313 21650.471529 19485.676754 21857.101161 19694.807344 18743.599870 18014.353797 17508.693964 16803.102335 16703.865057 14616.495940 12466.936285 11864.596036 10666.610774 9074.483263 7707.648986 6697.444962 4930.840574 2638.897832 2153.894749 1599.946540 -2146.034204 -4739.397381 -5042.746289 -4875.371429 -4666.460088 -4413.748965 -4134.270711 -3843.115732 -3552.859848 -3274.569277 -3017.810658 -2790.180666 -2596.852684 -2440.362983 -2320.683081 -2235.534892 -2180.867785 -2151.410978 -2141.226867 -2144.210953 -2154.505282 -2166.810755 -2176.597598 -2180.222594 -2174.966999 -2159.011381 -2131.363873 -2091.757194 -2040.527971 -1978.489612 -1906.807635 -1826.884028 -1740.255125 -1648.505838 -1553.203052 -1455.858946 -1357.991629 -1261.676968 -1173.373370 17174.577180 14419.267266 12123.753629 11872.498018 10394.870535 8985.390504 7551.110323 6936.210499 4746.294853 1346.792599 1506.612752 2493.999317 -2569.475049 -5138.698442 -4820.382957 -4817.310517 -4647.390104 -4405.857526 -4131.115391 -3842.906261 -3554.966204 -3278.610205 -3023.388315 -2796.830018 -2604.068520 -2447.648538 -2327.595458 -2241.717186 -2186.065573 -2155.474859 -2144.104473 -2145.932216 -2155.164308 -2166.546918 -2175.577670 -2178.625039 -2172.969038 -2156.779029 -2129.044895 -2089.476738 -2038.386528 -1976.562892 -1905.147908 -1825.522491 -1739.204773 -1647.763776 -1552.747545 -1455.614391 -1357.597695 -1259.102834 -1155.948413 17450.996702 16978.401623 16353.562148 15166.402134 13220.346913 13468.085891 11386.747732 12171.496153 10856.616227 9721.798647 8697.162943 7253.338224 6946.560942 5504.759993 4132.377015 3203.685294 2483.102435 1914.272058 1458.274071 1088.486185 786.154659 537.463846 331.796856 160.797101 17.864008 -102.158895 -203.228171 -288.324614 -359.665462 -418.898007 -467.266268 -505.745865 -535.146585 -556.185484 -569.535237 -575.853085 -575.795474 -570.022805 -559.197830 -543.980346 -525.020113 -502.949291 -478.375220 -451.874026 -423.985307 -395.207894 -365.996192 -336.753996 -307.807013 -279.244151 -249.903518 17421.422803 16979.098125 15806.812835 14633.053283 13583.635758 13126.688737 12397.194853 11825.540828 10842.422270 9630.433567 8542.411004 7467.582143 6412.903105 5261.933800 4156.267935 3238.374761 2512.421896 1936.940521 1475.750934 1102.178035 797.047838 546.214226 338.862574 166.527314 22.543345 -98.292998 -199.980276 -285.539298 -357.224603 -416.716404 -465.286021 -503.930331 -533.474639 -554.646540 -568.125239 -574.571476 -574.643054 -569.000314 -558.305091 -543.215828 -524.380776 -502.430621 -477.971378 -451.578067 -423.789459 -395.104084 -365.978004 -336.827328 -308.054106 -280.203824 -255.006616 -1107.703364 -1077.046881 -1079.673151 -1049.698364 -1009.115044 -991.555052 -919.205796 -916.763568 -839.749047 -839.712590 -765.608295 -765.985264 -696.093238 -696.541989 -631.116398 -631.575163 -570.638242 -571.092078 -514.582230 -515.024898 -462.830230 -463.257782 -415.229845 -415.639444 -371.602610 -371.992236 -331.751331 -332.119628 -295.466332 -295.812498 -262.530704 -262.854391 -232.724628 -233.025862 -205.828915 -206.108019 -181.627845 -181.885379 -159.911413 -160.148119 -140.477065 -140.693824 -123.130999 -123.328791 -107.689105 -107.868974 -93.977584 -94.140619 -81.833327 -81.980632 -71.104063 -71.236744 -61.648349 -61.767496 -53.335399 -53.442075 -46.044817 -46.140051 -39.666228 -39.751004 -34.098849 -34.174104 -29.251003 -29.317621 -25.039609 -25.098420 -21.389638 -21.441418 -18.233573 -18.279041 -15.510859 -15.550679 -13.167364 -13.202146 -11.154853 -11.185157 -9.430483 -9.456818 -7.956316 -7.979144 -6.698858 -6.718596 -5.628628 -5.645651 -4.719753 -4.734399 -3.949589 -3.962158 -3.298377 -3.309138 -2.748920 -2.758109 -2.286291 -2.294119 -1.897569 -1.904221 -1.571596 -1.577233 -1.298759 -1.303525 -1.070799 -1.074816 -0.880629 -0.884005 -0.722187 -0.725015 -0.590294 -0.592654 -0.480532 -0.482495 -0.389145 -0.390769 -0.312942 -0.314279 -0.249224 -0.250320 -0.195720 -0.196614 -0.150538 -0.151265 -0.112129 -0.112721 -0.079263 -0.079753 -0.051028 -0.051446 -0.026834 -0.027215 -0.006447 -0.006829 0.009961 0.009533 0.021739 0.021211 0.027656 0.026962 0.025767 0.024827 0.013251 0.011963 -0.013795 -0.015552 -0.060597 -0.062974 -0.133988 -0.137166 -0.242742 -0.246938 -0.397943 -0.403415 -0.613408 -0.620458 -0.906140 -0.915118 -1.296821 -1.308128 -1.810324 -1.824415 -2.476241 -2.493622 -3.329405 -3.350634 -4.410380 -4.436062 -5.765912 -5.796692 -7.449292 -7.485846 -9.520615 -9.563637 -12.046892 -12.097077 -15.101981 -15.160003 -18.766302 -18.832793 -23.126291 -23.201810 -28.273574 -28.358579 -34.303813 -34.398626 -41.315214 -41.419983 -49.406670 -49.521338 -58.675542 -58.799806 -69.215078 -69.348352 -81.111483 -81.252859 -94.440696 -94.588867 -109.264997 -109.417942 -125.630002 -125.783219 -143.565199 -143.701112 -163.107172 -163.130240 -184.453660 -183.809167 -209.037997 -204.183210 -228.593199 -220.233887 -236.545709 -228.009301 15559.927190 16383.462299 14775.255385 16999.975729 15236.245578 13676.357497 13781.082720 13904.359074 10751.978589 11337.000604 12980.808293 15578.054754 15095.319066 14496.222135 13730.527753 8369.412295 6060.087512 11529.449607 11469.938018 13212.914673 14941.713298 9374.006736 16020.357361 15802.616211 14485.906148 14725.271982 15339.277460 14337.586239 10119.964119 14259.847215 11860.376028 2440.193001 14283.694736 17409.854738 16855.769243 16246.649083 8851.688083 16407.205000 14937.908510 14694.046409 8110.197441 12046.665929 9875.429998 16974.942976 12005.985540 9839.186689 16157.856134 16563.015076 17876.105631 14193.442907 16967.057706 12260.548023 6563.227534 10433.579519 13849.252783 18818.130040 19375.053138 19989.927582 18569.473578 15125.014211 13980.515610 17490.715313 17305.614298 15740.815893 12600.410622 17343.253209 16533.327603 13390.729246 17077.691681 17762.360941 17652.374017 17134.761298 15733.950644 15206.772435 15122.914417 14234.658522 9862.574391 16367.433252 14333.828804 15229.487255 15969.884745 16816.802974 18118.403137 12939.407702 15531.452565 15710.641374 9253.024678 12673.581619 16799.157668 17463.451760 10423.095802 16477.883254 17259.237631 16070.800767 13933.778164 16746.364958 16350.364726 5804.861577 13058.849356 19107.919895 18997.035399 16734.939105 16043.806422 11180.454799 16040.546233 10889.563434 15690.868662 15448.065476 7048.903745 13065.128835 17584.192152 16708.071782 16456.458337 8243.612891 17610.103592 13214.627448 16337.880545 9252.214184 10052.475557 6238.379191 5722.036144 20006.564619 17598.070236 9486.920542 19081.757500 9539.198886 14122.953934 11313.693737 11867.045076 12507.842921 15181.773369 12783.422469 19396.891424 17197.278060 16898.739636 16587.246157 11140.687547 16751.879660 13639.892880 8471.322014 17803.411222 19688.303851 13666.211872 19762.520770 19222.431238 22119.149024 19232.091764 19319.310221 14867.311375 15696.618207 11558.716899 14934.219844 10409.231863 12713.056940 19654.000112 18325.489337 19320.559482 18912.844404 15659.842988 18335.708551 13345.771446 15174.944784 7410.944130 9320.723682 8201.402301 18752.560429 17391.754676 17398.971977 14111.948722 11346.249912 12546.249671 14384.232495 12340.210196 5594.924752 4734.773606 10980.981540 17630.187502 18021.123092 20540.215583 17207.054371 17844.226343 15349.137775 12548.056054 16686.204943 11435.948529 6920.390650 1918.433896 17720.278772 15477.869254 20219.019825 14097.978600 11362.332940 6350.216098 8016.851385 7967.633045 4924.216342 5510.336668 5660.183029 16201.246437 18994.592257 19129.641666 18970.371873 15912.100698 7462.910975 15647.458465 9936.386657 9141.736854 5980.545334 5250.338604 19707.453534 19152.666044 19117.562596 19967.880236 10649.534397 11355.271542 9612.091159 7577.705741 4769.790412 10661.478713 4667.899598 21961.184255 20758.442502 20819.246870 18265.922752 13879.363586 7185.098424 6966.469142 5581.345165 4710.591874 7238.787824 4704.048228 20383.000287 20863.539319 12454.395499 11720.013119 15325.747693 7340.091724 7829.846232 5788.930716 6952.539016 5768.186256 4872.362132 21949.561952 22498.713718 20427.330519 13344.154860 15289.849658 13356.820035 7021.725547 6537.788731 5751.590733 8573.989585 14188.277399 22690.971636 20118.571218 15652.138385 17178.077770 11417.952360 13409.421158 17338.894660 13020.475220 10052.620319 6952.698163 1863.416372 19736.116704 18551.950051 19070.641357 16580.891195 16265.714650 15739.786806 10435.307774 4051.420037 12811.582300 5916.324381 4312.057443 21876.608142 17590.364958 19700.666119 20174.400297 17130.611492 11959.568199 10410.901977 11540.946986 9021.996418 6166.135879 3487.101387 23469.415366 18920.248040 19219.389417 16613.334320 19927.823534 6223.356814 12306.269698 6566.478324 6830.174090 3460.480226 8591.073049 19099.915037 19440.753473 14140.626149 14743.234891 12637.771397 19272.495029 11149.383625 11133.143553 4033.828531 4690.232147 9710.528430 20852.534763 23415.295731 20117.954338 15626.001537 17310.629214 10789.253905 8927.583205 9463.816340 7601.576644 11737.295797 4481.763517 22742.437865 19865.213932 14654.699072 8465.668170 17432.513664 7134.981738 8043.542527 7587.663045 10571.986263 7050.086396 13952.772012 22244.748168 19384.848084 21634.517200 17969.868649 15799.876355 8430.391261 14063.958226 7235.024026 9804.325693 10236.545932 4559.281165 22974.343593 20094.967514 17948.427971 17624.829100 18376.495571 14036.127386 12304.688826 13170.524090 10819.745632 10330.647274 4512.309020 20674.181865 11071.102843 19699.435754 14965.110941 16959.291020 13876.401934 6268.185511 9184.609084 4541.900728 6595.738856 6196.560771 21975.092893 20064.305771 20764.376946 12977.162054 17930.569450 11072.992370 7515.882193 8247.411940 4709.915924 6195.150618 10186.450048 21167.764189 19458.067671 18572.041746 16008.127740 18015.696107 10741.619356 11453.769052 7595.965098 4359.575299 8097.639759 12453.133605 21979.525711 21697.163084 20250.712969 14868.734005 13611.524441 14276.118905 9889.266588 16531.230988 6047.958984 6990.142010 9422.780468 20976.333296 18935.182784 15997.405477 15081.677186 21298.046915 15116.213709 10984.859994 10039.648832 12658.739051 9260.405745 6229.726210 20158.149049 22430.164309 17496.313055 18086.702541 12091.111293 12505.443409 12605.441839 11479.142164 14743.259129 4654.732752 10591.942377 21221.892116 21456.785784 19018.461492 13946.775132 17203.606752 11365.240542 12208.126412 7706.236253 9457.280480 10981.792637 7732.410176 19509.000147 15980.122098 21035.925849 16064.374059 8696.730634 11925.390725 9981.323683 10132.801684 6500.566298 11558.344996 3631.888873 21058.085998 20571.194803 19840.907858 19909.181292 20046.048990 11615.472207 6974.196191 9467.560500 12353.841034 -10606.888731 12621.531409 19930.238074 20088.892103 15768.729527 18807.333210 12754.631943 15723.126895 15585.368899 9213.637678 8361.864555 8743.778935 7809.565035 19355.268008 20785.749385 18394.175863 15564.666080 18122.337366 11963.642845 15520.517641 10017.880863 11731.063731 7001.255111 10565.119243 21679.487921 21679.563511 20066.796831 20412.950543 13241.575288 14591.138475 9304.492228 9703.717603 12000.210289 7724.448049 5788.570894 21927.504479 20617.319259 18195.082584 10609.975157 14401.175655 15533.609050 9525.786464 18025.697462 12489.119571 12608.108032 14017.261834 20219.504722 20943.049981 20882.148364 9388.698528 10461.236265 11797.534587 9678.613327 13545.912356 10148.073517 10233.943245 6077.958258 20667.593469 14759.237827 14370.923615 18687.215666 12243.056407 17565.270273 13609.178434 10671.785730 10684.293100 8745.949188 15171.623751 21988.249016 20410.132863 15819.963607 20019.765345 14346.028154 14808.680076 6805.967861 17790.468846 13204.645848 12336.065306 16617.748659 20071.795012 21388.088834 16485.885018 14510.495209 11580.084487 14475.934375 16237.500066 9865.334556 12687.274804 13298.939756 14327.144283 18879.298200 17382.207467 20770.329865 17461.716043 14437.616887 12807.044863 15963.964355 13443.998210 15409.482840 12288.152528 19208.344323 18575.173578 17102.993434 19231.449727 17228.384574 15500.852942 17288.732703 12067.629908 13307.161503 12064.772611 8775.579618 4331.170276 21509.740445 21218.595459 17271.389451 15514.527218 18962.321695 15261.828612 15691.330665 13343.839434 12226.812356 12302.011688 6429.263361 20328.049336 21269.443530 17908.630382 19082.487256 15138.979478 16092.182775 14888.572410 10293.515609 13447.748288 8814.067240 6285.501490 20059.582846 20677.005820 18785.697326 18479.833530 19835.978460 15447.651486 12398.795544 13044.746336 12290.049394 9016.041420 8695.656605 20572.733768 21459.612074 19794.348956 17044.968252 11830.541015 11836.445198 10664.077176 10444.291881 9730.791269 11678.424258 2521.547725 20460.757266 20088.915283 21003.689479 18090.913030 13772.485067 13547.538146 9726.830974 10735.478784 12292.864473 6988.487727 8264.117361 21323.453489 21825.327921 19704.808664 12825.239986 11513.319182 12360.860833 12382.927376 9579.573764 12108.091530 8856.522663 5755.506617 21224.196095 20005.110800 16084.249948 11528.166532 16608.354913 12042.160794 12101.709712 11984.155273 9709.219493 8931.688141 5616.047570 20956.317547 17004.158242 19379.342067 18740.543201 15533.326109 12860.498030 13678.085716 13884.378207 9572.064575 7584.349664 5239.958548 19651.977733 19327.953382 19299.906876 16212.254775 15845.845555 14075.148098 12516.323816 14071.280397 8836.839169 5269.113921 6814.063941 19441.536651 16777.152438 19653.279741 15507.993187 14572.064207 14376.990019 10122.752119 13510.754487 7770.973570 8129.703467 6395.879485 20629.805171 17937.113118 17432.432404 13712.617558 15426.242352 11954.396591 6585.913327 9249.015231 7200.505227 6704.561366 5149.147347 20201.503190 19962.431451 18518.182713 16884.881245 14867.815589 15556.336107 16296.258698 7095.927326 6359.925093 5159.138273 6793.615243 20722.425528 19332.747446 19558.940033 15505.034793 16837.739044 12742.446892 10775.733682 11637.620660 5872.275966 7742.574184 2323.330668 19286.973437 17957.708391 18433.443475 16716.380502 14019.874793 15177.044013 13238.648803 8368.637362 10836.675905 8127.551245 5060.584282 20274.377373 20009.369280 18373.798682 15012.478371 11745.162756 13076.820760 14917.267767 9803.418536 9803.226868 6285.901779 4469.575560 20262.299809 16126.030013 18203.033714 16304.769000 13507.686858 16040.906575 9973.871561 9196.053175 4636.728595 7371.843774 4267.901459 18297.969816 17663.994976 15603.120471 17990.338924 12497.146624 10576.085606 9355.109212 9422.436731 7521.801416 6192.157189 4630.608634 15712.072844 17928.259477 14966.914322 13559.485452 12424.957658 11501.595706 13380.233459 8289.301351 12291.973405 6655.353999 5005.460043 19108.912968 16131.505982 15485.320035 15709.940642 11139.821389 11744.513386 11794.133637 6629.025642 7765.663792 10056.248641 6228.898686 15823.978250 16301.533927 15710.550175 15659.576215 12292.329454 12601.596174 10931.924032 14695.782601 8579.688880 9347.038462 3723.775289 18237.850670 14077.924092 17165.512132 18044.721334 14815.653708 11298.242120 11276.814832 10064.485284 11434.928691 10127.510305 8733.941310 18095.158603 15700.981551 15349.934790 14765.930484 9705.377932 13353.795998 14768.539492 8528.431450 12029.620288 5900.991573 3792.213461 17523.668468 16129.185083 14857.196319 15887.642031 15077.197652 15289.624260 10851.297084 8482.967089 7540.104148 4129.653864 5339.034628 16866.735794 16256.815289 14176.045402 16408.150052 14799.068818 12714.600356 10478.164024 9880.849379 9018.326492 8367.370387 2978.436341 16077.042774 17353.393735 15994.399088 17044.772531 13094.886108 11525.076811 16152.456293 6697.258745 10211.233545 10034.754910 4539.648987 17392.145591 16121.977995 16172.441569 15561.192207 14230.375177 12473.537681 10334.595023 9091.758588 10418.839195 8308.815091 6301.647515 14468.078725 14088.421426 16464.379619 16269.197341 14657.906206 11400.548800 11151.624400 8596.424149 8266.953663 8039.936464 6518.434180 16845.399286 14790.137012 14524.048060 13305.515148 15419.745374 15377.809812 15781.249558 11315.656125 10072.347457 6963.520154 7162.734061 15228.248302 16949.653046 15869.483906 14517.619706 14559.179084 10985.395822 11665.725850 8317.957079 11489.599443 4957.410080 8535.372055 17958.579375 14671.529595 17432.967885 16284.270377 12509.706566 14993.501187 9067.867012 11519.305450 11848.598678 5667.619390 3397.592196 16751.135206 17024.410618 16029.284929 15626.003626 16159.625268 15229.998036 11993.823399 8549.562934 9895.684898 9830.093422 7121.815449 16851.188350 15821.950295 16818.356425 15706.453282 15272.129227 13568.209004 12372.502361 9055.149717 13484.849029 9527.404727 5437.331042 16515.525674 15305.680491 15543.878428 15477.633481 15254.159408 13631.320971 11438.503976 13503.738983 6839.317400 8825.918427 4060.202733 15671.117794 15744.317747 15872.276170 17564.526910 15605.718316 12030.042521 13841.450295 11619.721234 10355.908922 9374.318464 4172.337484 16933.618021 14540.076119 11841.060354 15253.665661 16427.197946 14382.203665 14352.415035 10235.067793 7566.136398 7145.990962 5886.539839 15047.028011 16953.025134 15743.623709 15045.685069 15444.734693 12282.908149 12700.920359 9886.161405 7842.725625 6762.753581 6572.796104 17579.250566 14495.825823 14960.407444 15508.965853 12245.345130 12755.338413 8772.956949 9080.126917 8869.857724 5637.448281 5741.270216 18839.888903 14749.776295 14924.513041 15930.833373 14937.915551 10117.630920 10644.250843 13923.277019 9399.847784 7899.328005 3020.134949 14436.081299 18484.670602 13521.169955 15080.861800 9297.362304 10760.841567 12449.733574 8284.318458 8178.695094 4326.677355 4469.528745 18478.961483 15624.921102 14893.050101 13134.639120 9350.520272 9598.414661 10850.664718 7625.429904 10366.946552 8601.020156 4124.793922 15758.439206 17408.175704 10611.584655 17034.663826 9878.584412 12803.713286 7238.597521 11264.446733 5317.205219 7274.194041 5508.006373 15336.133370 15843.134540 15903.630312 15500.548203 16878.040139 10914.608965 11479.338719 9734.631566 9041.416475 5048.971986 5259.955101 18459.213494 15720.263394 15441.757398 15177.548662 15737.815344 13792.358645 8247.595357 14662.986002 5673.551607 7280.794177 3656.900668 18555.293022 13648.121385 13069.065322 11241.145234 16037.549174 11988.107767 10618.757286 7811.841692 3281.074046 6580.527195 6026.843132 18458.998878 17836.469298 16252.439468 12026.188205 12920.995485 10315.927959 10103.337686 7689.937200 5822.470649 7453.163215 5040.256765 17814.922389 15909.350064 14889.361588 13656.680437 12988.244273 10625.732069 8240.764244 9417.731203 6023.983157 6097.548678 3971.447496 17414.297642 19296.131666 17006.993620 13120.522676 13307.013756 7227.525603 9315.445151 9864.929041 7225.188700 5082.696903 9143.852346 15558.063537 13707.556478 12483.419864 16401.071312 12736.199469 12667.184541 17630.051297 4575.890867 10175.640277 7336.744529 5338.369015 16417.620551 18717.488672 18765.807625 17292.214531 10322.304007 16052.441687 17964.106647 8247.903437 7025.156050 5410.055527 5804.577100 15274.335861 16019.378080 14030.314009 13725.010405 16675.907059 13000.058448 13037.795658 16094.820252 5658.276188 6909.134746 7436.957144 12932.881835 17050.116584 16893.148367 14582.804563 7887.817967 12987.595658 10390.680181 14579.709666 13740.433867 8469.252509 8499.778074 4368.254624 2018.495528 4404.215178 15457.775617 6865.767385 13797.022337 14366.896376 5714.775660 14957.920214 6483.982746 3750.490574 12731.095077 5595.668144 5239.821043 3312.473543 2836.661969 5792.603275 6137.984751 10746.742317 8971.210369 4864.370395 4147.327430 7416.432716 7587.421916 8781.653744 10920.174984 3226.606551 3150.876249 4246.491063 3670.307224 1347.199624 11057.950491 8489.582158 9499.862456 10402.907583 10649.314858 11280.678572 9886.172777 11049.833652 3674.856393 12176.522039 8391.565875 7084.795371 4369.470359 3775.766100 12030.704410 14394.364839 11604.827172 9251.990338 14658.309389 9541.269806 11051.030112 8585.441868 8356.698412 4400.617887 4780.971543 6931.904585 3064.093651 609.727612 10402.851915 14592.767427 7615.277351 12169.410028 12771.184051 13417.572403 14783.371559 5732.614304 6601.116434 5306.309481 7802.552378 4260.856807 9315.658313 3062.222059 16016.066682 5170.122597 10251.489024 11053.029086 5233.372263 15070.948036 12576.444371 11504.959646 10122.058869 6351.872791 6912.012881 6039.595945 3417.185590 2993.898127 7113.513985 8586.684027 8177.132150 12195.595959 10483.025004 9908.135672 7302.077099 8200.124104 4560.406154 5379.458568 10456.215769 4395.262393 4545.419572 2874.014898 14507.969308 16768.314170 4707.992667 4609.921302 9905.572600 7258.869062 6070.827336 6479.555420 4732.748858 7268.259947 8883.805680 5649.673891 4103.335673 3175.649062 6644.946010 8513.561164 10742.185584 6007.376256 10710.409333 7831.636128 7994.384545 7129.994962 9005.810687 5281.495426 4261.517492 3076.483762 3303.638909 4141.739213 5874.317377 8735.483182 17129.410114 14197.577311 5994.315140 6812.709164 7218.958371 10844.394011 5939.436114 7601.746605 12842.505202 9643.825278 3818.383424 2457.622851 9055.937426 4084.979685 9190.817916 19692.649614 8207.594698 11512.590989 4697.396194 10073.273948 4249.966231 6643.192681 7579.903760 16208.561635 3339.991213 5430.060861 7910.785342 3285.416469 4436.261849 9300.399348 6321.374414 3448.168733 7842.205510 15022.549965 13031.620086 7338.414640 3475.985819 5576.974404 5683.531709 1999.064950 1992.048780 8115.027229 4244.919646 4361.738771 7413.261025 4182.320016 6416.253539 9505.761909 4909.316534 11278.029170 5834.497910 3973.483809 3365.924485 3829.890874 3829.742725 4734.270035 3358.544972 2699.011278 3233.987516 4085.556021 7751.661808 5379.137194 3302.702621 2085.348454 2980.667216 2257.339119 3476.678560 2211.234915
</DataArray>
<DataArray type="Float64" Name="Velocity" NumberOfComponents="3" format="ascii">