<VTKFile type="PolyData">
<PolyData>
<Piece NumberOfPoints="1945" NumberOfVerts="1945" NumberOfLines="0" NumberOfStrips="0" NumberOfPolys="0">
<PointData>
<DataArray type="Float64" Name="Pressure" format="ascii">
 16899.652541 16778.264109 17719.463793 17005.774874 18544.702166 17997.932970 17702.353030 18169.935894 18072.385612 18473.485043 19946.338713 20002.189559 18313.595028 19146.858860 17889.386142 18526.964375 20031.707071 19817.853717 20626.676302 20657.427882 20785.823636 22102.542425 19540.440949 20514.625643 20332.396342 21287.281197 20377.135621 20421.223347 22748.272412 22230.258894 20013.173380 19195.864956 19985.953894 20232.365217 19678.707612 19976.873557 21133.235735 20105.743749 20539.786681 19873.951012 22245.689007 21574.887785 21760.802898 20329.001427 22626.914988 19900.516906 25751.179549 21947.712008 23818.998758 21357.351982 21913.254955 19976.119774 20804.131034 19958.838115 20908.434512 20671.153820 20689.790999 20834.968066 19571.081883 19848.978692 21265.610479 20498.380293 23623.624931 22356.508055 22400.716878 22074.639312 23202.129794 21776.477047 26028.217134 24255.451243 24018.506787 24093.734324 23020.899377 23339.570499 25249.646949 25004.650696 23058.622332 23744.743124 23096.535873 24035.379679 24549.701213 24917.847378 28002.536730 27313.449076 28622.889472 28711.607809 28200.746003 29016.522519 25137.178395 25359.399869 27980.084364 29809.482963 28729.119778 27922.936898 32624.258342 30483.526371 28541.848682 28657.143441 27188.413427 28823.218385 29702.134595 29824.449807 27272.915180 28684.958071 29008.846361 27969.690091 31290.675122 27424.670911 28881.827405 28525.874135 27094.327113 27215.675814 32704.450038 31863.653168 30904.759708 28536.499433 31215.700088 32228.586784 29259.289600 29306.132636 31391.115868 27781.897932 32818.654839 30022.150198 29599.329281 26693.124655 32266.102128 28542.917646 29180.475055 27978.269097 31548.225070 30944.920264 26257.804230 26181.004989 29995.971809 31136.051607 23014.208954 24238.072577 27592.283387 28294.964401 21335.233120 24373.631581 21851.615028 20476.327922 32598.434393 31344.825308 23363.886204 23080.753437 26939.075801 25860.094793 27213.036287 26257.296715 25177.993082 23870.902201 27402.309640 25246.604211 23363.071165 22385.557464 27544.916441 26476.889211 22757.972973 22738.573915 23185.135693 22160.045276 25312.025286 24436.173310 22733.919155 22686.681087 25966.755640 22607.269346 22970.348108 20516.587818 25433.957299 22244.877225 23197.429148 19119.553312 22927.461420 21965.935509 24868.152083 21489.316543 25450.091432 20168.751870 25359.919963 21541.626692 22479.251039 19374.752090 22335.248077 17993.569922 25051.789727 20480.548099 22633.121870 18881.236286 24002.167844 20206.489261 23904.994781 19523.138949 21634.348090 17162.810779 22395.370952 19266.312097 22269.300905 21166.564470 24707.336473 22635.049612 23787.101563 21185.509620 21548.640172 19156.934383 21723.045532 20623.014043 16565.017105 15963.017159 14544.280491 12742.074873 11040.959046 9617.017383 8291.038794 7133.044891 4916.941103 2019.735947 26.126554 -463.228061 -514.295850 -660.943870 -2531.364645 -6044.877101 -6776.958851 -6718.397596 -6889.891070 -6961.918410 -6948.304592 -6863.599150 -6719.511405 -6526.702734 -6295.493428 -6035.606814 -5755.752838 -5463.346174 -5164.413900 -4863.659891 -4564.629955 -4269.924838 -3981.420536 -3700.468997 -3428.064319 -3164.968835 -2911.800040 -2669.083378 -2437.277976 -2216.782996 -2007.931799 -1810.980054 -1626.092571 -1453.332187 -1292.652825 -1143.897918 -1006.805870 -881.031590 -766.242389 -662.634471 -574.280574 16056.480486 15858.253527 14104.980046 12737.522221 10731.429748 9271.564136 7584.740980 7418.562763 4990.260218 1624.342204 -612.594322 -584.380923 -431.276764 -259.991460 -1701.222736 -5643.262287 -6891.974607 -6633.860647 -6848.211113 -6939.793859 -6932.687742 -6851.200778 -6709.485641 -6518.827982 -6289.627714 -6031.553116 -5753.256174 -5462.125356 -5164.194098 -4864.195670 -4565.717469 -4271.405128 -3983.176682 -3702.419707 -3430.155989 -3167.167555 -2914.084460 -2671.438937 -2439.692653 -2219.244529 -2010.426169 -1813.490978 -1628.601703 -1455.819766 -1295.098435 -1146.280574 -1009.099575 -883.173435 -767.932310 -662.122007 -560.653621 17263.102166 18167.716961 14833.918226 15025.777593 15249.453287 11765.214467 11470.786570 8521.562045 10050.811143 13471.440352 6904.921032 10945.844698 26767.762219 10055.886766 1377.968127 183.639803 -105.728417 -132.278295 -130.388470 -179.135980 -294.294857 -465.581368 -673.307829 -896.150858 -1114.734510 -1313.146867 -1479.425554 -1605.533432 -1687.082744 -1722.930531 -1714.701727 -1666.267617 -1583.198055 -1472.205630 -1340.602908 -1195.796429 -1044.841498 -894.079011 -748.869716 -613.433140 -490.789255 -382.792190 -290.238379 -213.027232 -150.351189 -100.893557 -63.016183 -34.923743 -14.795112 -0.860846 8.617416 20126.657413 19962.417865 18301.855695 17399.021307 16380.887982 14584.823273 13886.316620 13268.371627 13608.936252 13849.855443 12876.933319 12102.997538 9757.341921 4619.852598 1638.419518 368.551209 -28.926744 -112.816964 -134.563124 -190.455106 -305.438810 -473.635725 -677.428722 -896.455267 -1111.767007 -1307.619660 -1472.090065 -1597.114888 -1678.244357 -1714.251511 -1706.662528 -1659.240325 -1577.441799 -1467.867464 -1337.724440 -1194.325932 -1044.650633 -894.982724 -750.647524 -615.849950 -493.613985 -385.812908 -293.273144 -215.930426 -153.015633 -103.249087 -65.025712 -36.578484 -16.114727 -1.939510 7.334202 -512.192995 -483.769168 -490.583977 -463.808003 -435.357438 -420.662840 -369.021799 -367.330768 -315.429944 -315.705013 -269.208288 -269.758689 -229.023966 -229.567454 -194.155078 -194.648650 -164.013702 -164.453539 -138.065567 -138.454475 -115.818662 -116.160602 -96.821951 -97.121057 -80.664962 -80.925316 -66.976881 -67.202425 -55.425065 -55.619548 -45.713097 -45.880035 -37.578500 -37.721162 -30.790255 -30.911643 -25.146200 -25.249047 -20.470400 -20.557175 -16.610565 -16.683481 -13.435548 -13.496571 -10.832973 -10.883841 -8.707013 -8.749251 -6.976342 -7.011278 -5.572250 -5.601037 -4.436952 -4.460584 -3.522061 -3.541390 -2.787236 -2.802987 -2.198980 -2.211769 -1.729600 -1.739947 -1.356291 -1.364632 -1.060347 -1.067049 -0.826489 -0.831854 -0.642282 -0.646561 -0.497643 -0.501046 -0.384432 -0.387128 -0.296098 -0.298227 -0.227389 -0.229065 -0.174112 -0.175426 -0.132927 -0.133955 -0.101189 -0.101990 -0.076805 -0.077427 -0.058128 -0.058610 -0.043866 -0.044238 -0.033009 -0.033295 -0.024767 -0.024987 -0.018530 -0.018698 -0.013825 -0.013953 -0.010285 -0.010382 -0.007630 -0.007703 -0.005644 -0.005700 -0.004164 -0.004205 -0.003063 -0.003094 -0.002247 -0.002270 -0.001644 -0.001661 -0.001199 -0.001212 -0.000873 -0.000883 -0.000634 -0.000641 -0.000459 -0.000464 -0.000332 -0.000336 -0.000240 -0.000242 -0.000173 -0.000175 -0.000124 -0.000126 -0.000089 -0.000090 -0.000063 -0.000063 -0.000042 -0.000042 -0.000023 -0.000023 -0.000003 -0.000002 0.000024 0.000025 0.000063 0.000064 0.000124 0.000127 0.000223 0.000228 0.000385 0.000393 0.000648 0.000662 0.001076 0.001098 0.001770 0.001805 0.002894 0.002951 0.004710 0.004801 0.007634 0.007781 0.012325 0.012557 0.019809 0.020175 0.031670 0.032240 0.050313 0.051190 0.079329 0.080659 0.123974 0.125962 0.191791 0.194709 0.293338 0.297542 0.443017 0.448945 0.659889 0.668058 0.968325 0.979294 1.398211 1.412519 1.984337 2.002389 2.764430 2.786321 3.775164 3.800430 5.045406 5.072694 6.585882 6.612547 8.374561 8.396221 10.337263 10.347478 12.323127 12.314123 14.072915 14.043752 15.166886 15.177026 14.779500 15.404404 13.266175 14.885280 12.345818 14.288400 16235.781179 18227.037419 14548.230043 17489.730130 17768.040687 12683.942834 16713.806857 17814.573402 14092.381062 13147.339391 15734.125839 17948.762977 16064.920444 12935.815844 18113.353614 13238.776926 8597.932352 13552.656984 14407.771464 11332.185700 13797.682685 13232.827349 19670.424262 17652.626881 18791.596134 18393.363561 15162.128372 17493.279553 11641.821777 15904.361436 13683.172813 4714.318619 18313.143356 20990.318054 20099.205944 18693.612202 11094.467448 16838.475985 20811.370483 13663.210953 8224.357563 15397.852968 8878.164885 16716.843274 13726.928857 7078.885325 18912.601958 21330.528269 18795.335123 16610.760200 16025.901611 16976.783856 7155.878523 13454.481236 13962.344961 15784.229691 20087.257026 20094.059426 20412.002464 20060.452577 16845.668788 18519.284797 17109.144499 14322.409681 12681.348963 19496.709372 18786.671716 17329.395609 21195.976242 19391.135697 19059.201333 16321.968189 17286.227614 16557.623275 14839.370319 14536.136246 6489.675765 18983.007230 19492.674163 19373.829745 17215.591833 20146.764762 16142.954127 14009.363197 16913.623297 17766.261085 10073.730800 10801.659289 19890.931410 20255.246320 16797.544075 19332.696772 19195.870373 15420.301785 13406.383099 18169.840473 15862.859760 10822.629888 14681.833789 21739.303178 16267.832937 14274.984643 17210.406025 10457.750940 18572.687696 13012.537898 14640.034357 17148.439617 3803.653856 11588.671673 19819.394403 16220.887955 18911.474013 5539.128754 17773.548039 10952.449618 16711.710273 8124.901604 9108.754089 7980.254541 4110.487605 18565.858001 18546.625719 10037.051044 18964.491569 7217.571877 13670.055979 10773.697736 12246.427428 14013.654716 13864.359291 12447.797886 20071.658498 17109.074832 18533.472675 16452.187062 13330.732323 15217.367903 13862.443575 9126.201845 18340.400020 19187.596581 10106.377398 19389.328662 17482.065611 18645.990882 18497.610243 17754.939355 15509.320263 14494.487853 15359.126301 15444.016257 10259.731587 10691.768819 20611.904143 19045.303374 20581.509639 18074.907979 13536.165173 20310.983969 12035.566535 12045.248820 5903.357128 9508.454393 7163.987724 22226.649547 20534.730611 20159.707716 17592.020043 14558.535516 11863.129554 12558.365172 7807.661208 4364.270158 3199.798995 4343.212556 20376.129920 21693.708686 18664.720922 21205.475184 17686.086548 17146.237462 14389.912542 13407.425563 8040.369495 1331.620682 3763.130698 21107.254978 18798.869538 19659.527658 16794.255222 13836.729321 9234.384702 4839.266046 5936.011083 3905.688531 1232.535616 2917.530998 21002.206302 20746.001540 20700.144448 19519.757120 13978.124803 9571.657141 12624.347869 9728.881221 7808.267523 5783.025639 3103.910807 23902.700357 22154.901017 22156.911275 18254.453400 7403.491551 9445.115314 9367.719338 4668.623520 786.756707 3006.770761 3717.926736 22910.783198 21725.568442 22930.384927 19984.781823 12794.735016 6020.317782 6212.563449 5666.089613 4932.437357 6945.256797 2472.356028 22278.982741 21637.915045 18831.659237 17282.852227 16815.155627 4210.515986 8472.315199 5570.190054 4400.638506 2897.643476 4162.173129 24096.451100 22978.879167 21121.569135 12811.502165 13736.276809 13213.441211 6486.779651 4204.136668 6503.156533 5935.479117 5212.581993 22549.277217 21628.269407 17302.521059 15213.117329 7662.036893 11338.752730 13901.702625 11936.531387 10279.784135 6732.516467 5002.743295 21015.326574 20602.637655 17830.360838 14561.708113 14779.476722 17623.264396 9501.682976 5232.948072 12414.369631 5074.619537 3847.538889 25171.527718 22094.780266 18161.138256 22152.260003 19409.618557 14631.146314 8055.107077 8368.192904 10133.640080 10471.757304 4780.351465 23158.439231 20942.396162 21414.713178 17319.541952 19740.568686 7218.854342 14019.041999 6640.008025 6369.403659 152.728348 3987.348102 23480.488441 17420.069504 13904.459487 16718.355510 16810.699068 16307.508178 14316.304105 15656.013049 6546.834186 5899.131058 10833.713740 23582.520080 24723.961357 20906.538772 19626.197852 18468.443076 13425.516145 6949.537621 10189.885867 7325.469015 9297.740054 6090.974748 25702.012751 22216.214153 18189.779542 12823.615845 17182.470269 9783.704494 13884.803200 7601.675258 10024.172242 10285.673346 6079.534250 24596.540125 21668.567446 26264.679103 18232.283999 19464.892047 7598.671950 10100.517876 13485.488496 8658.756519 7754.569876 4698.733400 27495.547872 27665.767402 18613.037291 19182.300802 21126.807895 16847.722319 15337.362723 10056.103508 13576.047766 12613.539980 4056.312159 26386.767187 10902.542720 23140.609174 18132.570179 21088.708016 16700.438744 10164.680864 14152.197453 7564.514257 8281.418549 6316.623707 26547.610681 27537.885207 22809.680019 22144.538940 18348.913010 15322.566812 14801.460870 13145.441149 8878.379757 7462.757230 8179.162663 25857.978756 23978.543768 21570.777273 21019.124593 19523.577866 17830.584863 16435.002835 8519.586977 6298.280003 7522.699396 4772.748509 29024.834129 25560.380897 22515.312137 21604.307534 21869.079990 19637.903324 13997.160757 17167.536546 6658.518251 6581.905539 6629.154617 25153.779540 27078.311591 19097.198858 20957.694480 24676.532216 17342.457045 17714.613392 13863.688455 13638.907716 8324.000443 4075.641288 22508.670793 24714.842551 22693.574244 24748.759367 22737.819766 12796.652953 16830.364115 15280.697666 18642.330373 5668.219749 9298.389126 29246.875433 27250.439698 25042.402918 19739.597365 21748.511026 13442.219414 11061.022266 6680.424733 10043.315370 6761.178991 4871.070908 27386.228879 24394.784186 26417.177636 18853.126028 10468.716013 14415.872892 10814.238861 8763.353599 7146.556330 11608.653703 7144.969279 29876.547458 27543.401734 28457.197875 22609.909161 21574.511509 14241.319538 12035.227955 9441.910933 13219.603778 5514.939935 5022.352943 25908.869727 25794.941771 24304.897352 18009.752764 16926.722614 15191.571095 18428.360867 10998.011998 7522.457260 5768.052785 6520.051791 28656.445801 28677.278950 22864.836881 20100.112784 18903.070241 14634.616760 15828.377322 12231.437912 9434.684317 7055.476762 9404.968100 28127.887312 24317.553195 24579.415388 25049.349279 16586.862816 16281.589921 12683.022149 11695.060199 9772.964635 8605.515321 6184.278869 26360.104962 27257.394372 24358.302214 14419.527915 17607.374380 16247.690883 13002.992071 18480.237393 7282.087208 11354.559088 2540.635390 26090.450313 26643.477894 27808.283894 8983.424296 10513.189003 12043.811008 12872.791816 10840.839021 7253.737521 11468.427535 -38.825834 25550.095598 22252.150276 20387.129315 23322.884354 13341.686040 18125.041796 16377.497441 6840.619346 9266.782848 14613.328369 6725.055211 28810.210923 26226.979109 21860.651295 22177.354096 17351.845341 15845.692148 7624.559592 19164.567897 12554.980657 4026.376441 3138.731436 27227.059337 27462.043534 24968.041363 20591.701071 15310.945048 20884.480328 21238.403374 8764.583410 14046.354909 4008.546176 6742.161029 25602.669840 24896.123656 25750.312404 20475.214137 21094.396008 18316.628474 19534.319145 13155.459552 15067.959123 7173.246243 3250.603732 27177.495772 22476.909681 24778.416601 23397.880064 18205.573006 19988.413012 15757.822982 17964.195718 13663.024300 10099.679011 3774.766121 28950.164314 26355.839278 21759.557798 21151.919323 22437.951826 18452.448045 19285.584985 15531.544217 9539.548911 5320.472454 1444.192704 26773.781569 28273.871523 24800.118574 23243.189594 21952.068427 18157.863389 15484.627406 13911.330270 14919.941890 10270.179546 3641.954349 26689.465174 27102.983639 24552.499540 25698.484123 22328.379965 20409.482575 14541.621638 14281.192025 8784.649285 7335.016087 1805.721483 29581.068035 26468.119403 24943.710499 23230.374260 17390.941436 12426.058849 10632.962546 14090.147747 5475.139733 5447.600572 820.022725 26481.327197 27409.649578 24208.787065 23474.694874 18748.411499 17956.990876 14420.377856 10341.866204 7860.731892 6071.195739 3600.274256 28864.010226 26797.922275 24246.484175 20165.581601 18159.446388 14862.797298 17309.463628 10958.092193 8217.300039 5396.090835 -1402.238923 26241.440458 26426.408774 22570.138842 17255.631016 22055.062029 17438.092793 16934.201142 14409.348628 13556.846947 7498.747424 3127.433242 30084.305599 24049.135131 23542.492674 22614.552151 18922.617718 19452.544690 16728.622745 20365.499271 9853.276405 4876.103262 3345.274633 26062.540365 24566.123423 24515.855194 23037.344094 21660.777266 21662.770669 17243.331519 15093.676481 6838.973059 6304.931494 9299.368861 25704.447679 22157.759039 23962.575598 23335.880322 19244.393285 20626.766520 9816.972466 9212.760278 5176.470922 5631.958128 795.884592 29681.611698 26789.236159 22907.102100 21589.980466 21423.547353 19595.299179 10628.736498 10418.400828 9979.288710 6678.930648 3464.925845 26046.585135 26122.233566 23929.015910 23410.041495 21284.215804 17263.142349 19715.186418 7061.504675 7006.361926 4622.400161 8145.216067 27580.752355 24194.413357 24249.876177 22885.299659 22459.773606 19689.666730 14016.058234 13955.685119 6480.482739 2673.930038 6450.328601 27733.615296 24770.789765 25760.807038 23222.426840 16989.159889 22290.611549 15266.490885 11275.393353 10236.573663 7242.043977 14593.082093 27245.353064 27909.128639 24385.913581 21906.156288 18139.190924 15978.769477 13635.382703 10996.003845 7377.561279 4854.826842 1797.104272 26649.756644 26749.145277 26077.596977 23555.094450 12148.479107 17196.369121 14840.832769 8050.754886 5210.840927 7243.089634 2400.830073 26698.704911 24221.332024 24168.062937 22422.725006 13864.240599 10951.767048 7458.201613 10975.737952 8654.347894 4879.877021 1348.856089 25104.124531 26318.959439 22063.617912 21080.833255 17843.817851 10670.757877 15127.688988 9839.046530 10811.371804 8947.185614 30.810036 25381.694757 24377.641902 25052.947458 21576.424061 19444.504404 11776.568476 13004.938297 9853.626017 5982.365775 7170.471173 14042.322901 27093.478367 27567.712319 23799.224670 22864.600753 17444.429126 17565.047301 9317.320261 13373.463740 9058.959275 9764.870677 3010.130616 26667.454370 18220.468775 21719.574889 23888.237126 20197.504976 14807.201509 14343.221564 9318.093103 9580.755602 10387.342899 3314.013447 22901.137603 27967.936149 21490.508570 20535.774823 14964.884947 15624.322100 16147.484488 8482.534211 10756.614921 8929.203289 -15757.053736 23703.022135 23257.645645 21889.989477 21342.986557 21479.254192 17973.746948 13586.828936 11372.545282 6503.372429 6108.250685 5000.693212 25370.809789 22105.126141 24996.937664 18247.741106 20166.398467 17475.726575 12556.799987 10992.593938 7742.719062 5791.737498 2055.424945 21961.423954 23397.584016 21219.980847 22555.520521 17839.423744 12300.430752 16774.225041 7087.067199 9765.527982 11981.751125 6943.102397 23854.578900 21905.201719 21594.238563 21909.090494 15393.969845 14354.939383 11933.852713 10370.411994 10703.322967 6483.390280 6317.129995 22165.073343 22270.100458 21875.581579 23042.413644 16472.476581 14118.513441 12398.386673 12338.182113 9518.474486 5808.583871 12691.016863 24507.125065 21278.765118 22397.396261 22631.974815 19716.705548 16277.739120 17173.343744 12671.343880 10515.804396 5430.685806 8454.755232 22863.416500 23376.009945 22254.870785 20995.935628 16491.061172 14464.170167 14991.797507 9628.978520 9387.804060 6209.652599 6365.232951 23580.518039 22673.901112 21227.983556 19609.694312 17598.620503 14583.691549 12399.766332 13268.510100 10787.338119 7182.598267 4072.893095 20600.961470 22394.693535 21816.121749 19976.674307 20936.603657 17221.698542 13802.983527 12065.248795 11562.057211 6899.975627 17958.580160 21401.774391 21851.189399 21066.431920 21930.287328 20385.053395 17811.180533 13033.082094 11209.986625 9787.407577 9513.463505 5756.883527 21229.566193 20015.913290 20313.327700 18607.154104 16890.391784 17435.611929 10311.967981 11337.800413 8802.610870 6374.930814 880.287213 18416.247846 19354.344444 21199.061277 19202.260558 18948.299031 13448.053310 12404.410409 11093.368221 9508.004824 5732.292511 8123.192196 20940.691846 18817.884019 16359.789727 17822.656683 16451.771297 15607.838769 11237.036952 10448.402187 6147.651032 3130.912223 10554.464247 18205.923347 13358.747066 18949.149565 19182.487066 14763.327199 13578.126640 13953.160750 7200.270399 7034.987533 13075.115768 15443.311584 20149.187565 17463.781830 16667.386764 15224.439542 12942.812823 15562.787793 8331.932159 8125.813963 8717.420235 1905.202967 -3180.777000 19866.135885 17566.512935 17459.700745 12955.916693 15942.693461 14483.543217 11538.412282 13698.353050 9632.522427 6774.658617 3108.912867 17376.299116 20667.688814 16518.076591 19261.706455 11101.366748 13018.023761 13456.255617 9298.724417 7537.669898 2406.919506 6073.723554 19292.684211 20433.271041 18064.244706 15826.137276 16234.939736 13993.769632 12465.745577 9527.885132 10898.608167 9379.091818 -13935.889855 17861.416338 17436.580872 12695.068331 15549.376455 11903.785588 12974.760181 11630.441016 12725.701176 13536.538817 2662.571664 7988.464672 16799.097191 17883.200745 16927.479552 14941.062335 14955.763281 11648.924460 12512.685581 12779.431014 11562.298970 3152.959803 8311.537933 19649.244031 18090.239234 15494.040666 16385.548451 14832.878505 13317.963793 12806.962145 12957.245976 11425.632127 11143.833576 12483.679722 19447.225904 16442.153385 15107.232137 11890.587754 15473.309274 13937.726849 13494.615311 13571.111088 11518.488493 6102.130497 14091.206045 17283.011012 18029.556190 18394.968193 15826.329989 13820.550414 13261.042670 13594.469444 11285.778767 12982.307804 14529.001021 12778.810889 16777.882608 18429.878552 18457.368975 12718.183907 14076.906972 12972.805178 12986.169975 10459.698961 13834.350132 11891.107516 3951.653105 18650.990228 21320.688817 16810.154707 14232.604258 16136.596671 12147.038751 11010.717786 14193.367966 12163.599797 9699.198067 13477.021601 19250.796865 14182.612200 13128.082009 15446.359612 17583.229027 11285.706341 14112.780109 8687.422753 13077.839494 12396.101430 9107.006172 20530.816835 19459.088085 18047.817780 17750.437933 16718.062027 20169.486282 17866.812233 8347.708791 13302.670801 12909.763944 15234.309152 16355.166706 16574.084883 14253.846588 15267.928002 14882.280562 12591.641121 15519.549935 15755.206333 13228.390280 8926.483221 11144.189296 13430.079955 17747.256678 17321.215346 14090.072240 10002.810237 15428.756217 12376.632799 15634.492095 16719.633854 11716.580858 9313.444544 9470.654220 4926.542465 -6455.562280 15910.435952 10967.349229 17169.754109 16556.742271 7383.036469 17832.623150 10210.839887 7542.694450 12886.819595 6300.086127 6979.892765 7027.442084 2145.623643 10106.112388 8005.518108 10410.277141 11789.346234 6537.418211 7236.156198 6560.268479 10798.714450 8594.778410 13135.889979 5587.631076 4520.976888 7037.719845 4795.808366 4744.377448 14361.089708 8681.102733 10136.884872 13186.791002 9574.377859 9713.445206 12828.957459 11671.980655 4513.614197 10207.795920 9754.999414 6337.863520 7771.811110 1221.312983 13191.581504 17918.185169 9318.771905 8986.789508 14657.638689 10888.425043 10910.348399 9970.848772 8318.859878 4720.261560 7707.097579 7192.572423 3089.635707 1588.700640 10587.576474 15224.947030 10903.437343 17928.920819 13459.712799 13536.989488 15757.887850 8461.340535 8362.195113 8106.795680 6115.825934 5676.760039 7947.215766 4093.145212 19747.838083 3724.624733 10182.420051 10264.215228 4668.989535 11782.095759 12653.101291 13067.866592 8559.333228 7338.038490 5527.742839 4385.324842 3837.019839 1127.053867 9013.377233 7885.857390 9712.607480 14120.217862 7831.939245 11743.762603 5661.103986 5043.326257 3270.377278 4675.827604 8447.348193 5312.308955 5042.852617 2332.401503 11823.654090 12347.546754 8279.870883 3061.281870 9429.707823 4403.781317 6306.594217 6967.189047 4119.995121 7993.166475 5565.985766 6492.536669 2001.493989 5702.351662 5368.723423 6142.531450 9513.198964 6056.021205 8583.499746 2892.560386 7761.146086 6306.273202 11786.710851 4024.333038 3117.695193 1755.379104 3592.701538 5668.314460 6529.088165 8754.180805 15843.952812 12204.833898 6343.177938 4650.173090 4973.664601 9580.136321 7702.362612 7906.560864 9005.629057 5175.422762 4314.984793 4698.270397 9687.156036 5481.814585 6878.322999 17373.514595 5314.536974 10543.471573 1706.726154 11403.366896 4918.757612 6670.005073 7021.117511 13071.280618 2004.187698 3695.495646 3972.705117 3480.025934 1752.528552 10221.479127 5064.389633 1492.146821 6942.123403 15527.590752 17809.329086 6467.035013 6509.805995 3853.228614 2357.157589 2881.505478 944.563346 5951.017463 6561.928743 3718.923602 6943.290069 4287.245978 4867.389393 10047.747626 3027.050994 11665.874824 4384.978421 2194.967770 3732.064792 2678.690482 978.149231 4216.883042 2356.907935 1662.640788 2885.251745 4997.873161 10440.834238 2258.424313 914.347264 410.675100 2561.637997 2566.296889 3942.696264 3832.949465
</DataArray>
<DataArray type="Float64" Name="Velocity" NumberOfComponents="3" format="ascii">