<VTKFile type="PolyData">
<PolyData>
<Piece NumberOfPoints="1945" NumberOfVerts="1945" NumberOfLines="0" NumberOfStrips="0" NumberOfPolys="0">
<PointData>
<DataArray type="Float64" Name="Pressure" format="ascii">
 55350.578308 53123.376022 55017.539190 49150.694345 60603.763439 56309.115365 58525.888471 55686.549446 53503.729135 51704.959186 53470.866439 50849.581094 54904.315752 54767.941244 55444.618362 55010.526391 54305.464061 53569.164134 51344.395799 52338.423172 44453.226842 41962.919259 49874.898641 49596.737461 48028.482906 48796.553957 42524.875137 40632.011262 48166.500088 48610.686290 42041.856660 38052.132237 42773.134328 39555.095074 49668.264880 48224.595713 39945.464837 36045.481554 40031.028452 39176.126632 37506.613367 37720.749103 34525.744161 35859.812432 35623.702013 39022.870026 34256.906900 38756.364270 31798.676264 35300.328464 31230.258634 34471.557911 30366.585563 33233.861197 29804.257186 33413.629114 28049.874540 31094.460649 26635.121696 29051.255059 25700.504403 28451.173311 24939.169331 28162.588507 23990.650316 26813.074570 23026.777803 25324.274955 22271.204378 25061.459466 21509.295795 24647.687803 20571.977719 23886.232983 19442.119354 22866.891758 18362.161783 21757.001795 17508.129276 20618.422167 16974.373607 19724.318706 16705.328619 19532.177390 16539.015735 19462.692835 16367.617749 19550.818806 16112.310274 19793.941552 15706.761139 20123.666919 15110.521624 20411.557500 14309.325897 20523.680655 13304.549227 20323.166333 12150.261766 19717.781321 10922.175551 18741.876694 9695.594247 17440.086510 8556.012560 16129.867812 7572.667959 14656.889441 6760.215438 13254.726796 6128.632913 12015.261765 5669.516709 10996.848799 5359.872376 10175.374829 5180.074968 9519.281836 5117.688066 9021.257263 5157.395223 8647.855298 5284.943848 8371.910678 5487.566485 8175.988901 5752.176911 8050.212013 6067.645823 7995.852770 6421.685761 8014.474585 6802.270269 8110.496894 7204.223543 8293.468672 7617.681976 8554.453937 8032.101885 8883.354735 8440.321599 9266.326087 8835.060975 9682.271193 9209.546848 10103.040276 9556.014870 10497.499861 9865.264765 10843.104897 10126.118996 11109.887484 10327.291043 11282.150396 10469.052871 11372.138712 10554.537724 11382.374717 10588.196607 11332.714714 10576.185302 11223.702245 10523.136398 11080.608126 10438.936756 10916.642316 10344.679436 10775.554754 10248.446072 10646.671943 10159.009751 10508.747432 10086.410417 10425.640067 10016.128570 10253.680642 9974.621399 10183.786320 9923.862507 9943.309899 9889.046402 9791.471399 9792.473099 9437.383600 9737.090353 9095.745981 9584.553555 8706.484907 9291.010091 7934.643324 9001.708140 7184.144290 8670.733245 6461.876864 7728.006229 6022.061785 5911.162167 4215.538141 4703.374091 3481.205746 2714.661290 2102.969589 833.405198 2000.121925 -1416.901446 -838.024457 833.086317 -952.503778 4420.995837 2618.802968 52900.287820 53814.319477 56333.728287 54040.733023 46162.343251 41263.436013 36784.755498 33691.698590 30070.681756 26689.380576 23688.309981 21169.684731 18618.330340 16074.411519 12899.241832 10610.664207 9829.928536 4825.050245 -961.638637 -3139.028302 -3484.163329 -7522.013800 -9045.393063 -7500.901370 -6134.015657 -4988.935913 -4049.286309 -3276.442672 -2637.652984 -2106.515460 -1663.863268 -1296.276233 -993.945452 -748.891057 -553.851652 -401.789060 -285.817728 -199.358564 -136.360020 -91.486694 -60.228525 -38.922700 -24.703624 -15.405814 -9.444613 -5.694457 -3.377678 -1.970526 -1.128387 -0.629700 -0.340570 48859.141311 52341.760642 51837.061739 50602.198599 43464.835235 39661.193852 35066.289022 33084.417383 28796.046972 24038.307736 19471.425656 15835.609581 11854.073171 10659.151685 8447.755223 7802.290513 8247.563771 -3226.666453 -4772.768084 -2783.971055 -1944.050793 -6520.980505 -9365.698899 -7410.851470 -6108.877372 -5019.207477 -4083.916588 -3306.139258 -2661.670366 -2126.014168 -1680.096372 -1310.138540 -1005.955127 -759.301724 -562.776667 -409.295568 -291.982118 -204.289213 -140.197762 -94.393415 -62.372002 -40.462921 -25.783117 -16.144527 -9.938683 -6.017720 -3.584718 -2.100267 -1.207356 -0.672873 -0.339841 -681.783184 -3463.884142 -4244.066293 -4114.534862 -3240.166929 -2378.226837 -2164.858871 -1459.409527 -1590.365122 -3322.248710 -1264.687693 1669.376331 1591.912779 1137.921815 679.376242 345.509873 144.474194 41.685181 -1.782031 -15.053973 -15.692318 -12.537919 -9.197862 -6.683876 -4.984658 -3.832472 -2.993695 -2.331148 -1.783316 -1.328961 -0.961147 -0.674017 -0.458592 -0.303137 -0.194988 -0.122251 -0.074829 -0.044781 -0.026238 -0.015069 -0.008493 -0.004702 -0.002560 -0.001371 -0.000723 -0.000376 -0.000193 -0.000097 -0.000048 -0.000024 -0.000010 1810.322782 822.879969 698.375698 1083.333005 1213.082462 1124.643900 701.094852 300.173952 -102.904970 -222.014162 805.968625 1514.475939 1504.035142 1118.949714 694.836773 369.253081 164.554066 54.971308 5.591989 -11.610227 -14.416520 -12.257852 -9.273286 -6.827370 -5.099229 -3.904449 -3.035630 -2.357462 -1.803209 -1.346503 -0.977309 -0.688497 -0.470894 -0.313015 -0.202515 -0.127724 -0.078645 -0.047346 -0.027906 -0.016122 -0.009140 -0.005089 -0.002786 -0.001501 -0.000796 -0.000416 -0.000214 -0.000109 -0.000055 -0.000027 -0.000013 -0.192913 -0.131550 -0.175415 -0.121918 -0.113641 -0.089626 -0.056960 -0.055180 -0.030374 -0.031031 -0.016318 -0.016957 -0.008730 -0.009127 -0.004634 -0.004859 -0.002439 -0.002562 -0.001272 -0.001339 -0.000658 -0.000694 -0.000338 -0.000356 -0.000172 -0.000182 -0.000087 -0.000092 -0.000043 -0.000046 -0.000022 -0.000023 -0.000011 -0.000011 -0.000005 -0.000006 -0.000003 -0.000003 -0.000001 -0.000001 -0.000001 -0.000001 -0.000000 -0.000000 -0.000000 -0.000000 -0.000000 -0.000000 -0.000000 -0.000000 -0.000000 -0.000000 -0.000000 -0.000000 -0.000000 -0.000000 -0.000000 -0.000000 -0.000000 -0.000000 -0.000000 -0.000000 -0.000000 -0.000000 -0.000000 -0.000000 -0.000000 -0.000000 -0.000000 -0.000000 -0.000000 -0.000000 -0.000000 -0.000000 -0.000000 -0.000000 -0.000000 -0.000000 -0.000000 -0.000000 -0.000000 -0.000000 -0.000000 -0.000000 -0.000000 -0.000000 -0.000000 -0.000000 -0.000000 -0.000000 -0.000000 -0.000000 -0.000000 -0.000000 -0.000000 -0.000000 -0.000000 -0.000000 -0.000000 -0.000000 -0.000000 -0.000000 -0.000000 -0.000000 -0.000000 -0.000000 -0.000000 -0.000000 -0.000000 -0.000000 -0.000000 -0.000000 -0.000000 -0.000000 -0.000000 -0.000000 -0.000000 -0.000000 -0.000000 -0.000000 -0.000000 -0.000000 -0.000000 -0.000000 -0.000000 -0.000000 -0.000000 -0.000000 -0.000000 -0.000000 -0.000000 -0.000000 -0.000000 -0.000000 -0.000000 -0.000000 -0.000000 -0.000000 -0.000000 -0.000000 -0.000000 -0.000000 -0.000000 -0.000000 -0.000000 -0.000000 -0.000000 -0.000000 -0.000000 -0.000000 -0.000000 -0.000000 -0.000000 -0.000000 -0.000000 -0.000000 -0.000000 -0.000000 -0.000000 -0.000000 -0.000000 -0.000000 -0.000000 -0.000000 -0.000000 -0.000000 -0.000000 -0.000000 -0.000000 -0.000000 -0.000000 -0.000000 -0.000000 -0.000000 -0.000000 -0.000000 -0.000000 -0.000000 -0.000000 -0.000000 -0.000000 -0.000000 -0.000000 -0.000000 -0.000000 -0.000000 -0.000000 -0.000000 -0.000000 -0.000000 -0.000000 -0.000000 -0.000000 -0.000000 -0.000000 -0.000000 -0.000000 -0.000000 -0.000000 -0.000000 -0.000000 -0.000000 -0.000001 -0.000001 -0.000002 -0.000002 -0.000005 -0.000003 -0.000006 -0.000004 53082.778776 48124.482557 53978.254129 51897.528278 51928.966449 45664.687176 46355.122427 43646.806117 43426.781908 38567.256884 37450.366439 54045.264204 49321.141301 49157.319419 46783.286804 46957.245011 48198.613302 44503.353163 44649.262052 41582.565847 41227.969557 39119.088685 50699.407361 47747.302359 49659.363877 53055.969800 49326.753928 49482.626929 48305.156634 43282.742476 43606.990032 41146.674672 38965.955952 52118.788462 51638.069082 45925.330552 52184.756833 44474.108707 46199.768632 44054.896160 41681.846107 38842.878290 37413.632388 35152.616855 50947.376153 46271.678290 47102.160202 46910.640107 45440.523935 42190.706212 41445.590792 40491.933442 38919.013565 37358.229748 35388.357001 43766.357718 44925.229114 43612.109042 44257.654531 45358.682014 42145.471730 39128.425529 40667.100736 39953.826918 35577.129718 35781.054237 47999.318760 51468.827085 50858.601917 46778.111138 44616.677550 44947.866683 40073.076687 39473.178451 33699.933861 33212.991225 36716.315920 40779.674357 41696.292773 43705.921846 42485.806525 41381.402227 39467.042198 39461.619766 38052.889330 37119.924590 33336.813168 29099.538650 43820.269562 45584.363538 45326.759228 42148.993314 40601.489400 40475.585657 40053.174924 36604.645866 34300.046093 35559.300126 34450.235480 41140.220038 41798.556850 37235.825266 37907.966128 39579.300440 35834.985794 32463.733201 31943.015690 30677.559354 25828.749859 26364.152037 42086.967256 40448.610239 39982.607685 37131.971449 33325.154099 33872.486746 35137.524725 29098.940973 28042.052785 25696.417349 19754.584149 36103.511183 37369.065265 34300.073427 33366.418214 34010.171211 30488.941942 27695.200574 25820.302703 24907.923246 24625.788763 12700.621230 37943.737494 38360.307914 35294.554740 32031.651004 30913.055036 24624.465141 25350.107435 22136.047905 19384.414856 18287.934112 11675.694169 37845.355386 37524.790108 32374.451278 30983.896017 29088.449496 25173.337053 20528.746843 21668.833447 18966.159257 16885.527464 10498.113897 37309.176478 34961.684669 33340.052317 29335.962685 27948.061339 21861.665015 19776.399477 16974.604369 11876.655648 15781.548881 12235.863219 35396.333449 32724.629237 31728.958299 26996.081950 24300.547976 18741.980066 19204.578076 11951.955697 13032.650661 5995.461880 3191.596623 33829.846038 32947.494269 31025.925277 25137.883027 26438.912650 17080.304173 23177.772217 14509.643555 7035.001523 -5785.998774 7846.176699 33141.812776 32405.959433 28167.722218 26210.772382 22018.323126 18291.508826 11490.554820 13866.726996 12692.839246 6829.715151 2388.702417 32302.314444 31826.476597 27251.513554 26712.571905 19160.772328 20830.512604 13896.300050 10513.398315 7719.882138 6296.572324 174.831866 33074.070961 30209.154565 28097.824702 23263.903916 20796.419276 14450.539385 12122.952459 14234.150671 1524.317562 1778.901220 10596.270710 33294.672107 29797.029019 27722.324801 22400.730394 19283.585403 18556.003281 8462.051601 7523.123978 3892.854352 1988.024141 7864.659340 32578.988823 29635.916379 26262.884497 23674.481463 15366.511490 18470.336444 15663.917986 8365.529692 7394.683654 2485.712738 -1046.852647 32212.313127 28594.179184 25824.002340 22755.718754 16131.342875 15650.687766 13207.782691 8159.023108 3554.349471 -722.351782 6125.570086 31338.830893 27687.275600 25687.404730 21388.559472 18153.514282 13112.798575 12529.085586 9497.400964 3829.728512 5903.852078 11343.006216 29875.658802 27477.852275 24958.980340 21266.396588 18371.869058 13772.581686 13275.572201 7623.183360 5223.162374 2055.309758 9441.536114 29247.571030 27432.145614 24239.362176 21674.116523 17863.528575 13553.801189 11954.746339 6447.057083 6374.401967 4647.552976 3342.016397 28787.116520 26790.328790 23829.800258 21370.518469 17951.614639 13478.835826 12623.924177 7624.962506 6093.039339 6313.344541 3505.913718 27945.168512 25527.520121 23707.702974 20327.247583 18487.451141 13362.462870 12650.810752 6584.540002 6232.450644 7283.972157 2531.929078 26909.620176 24449.169633 23243.305840 19583.586759 18139.857696 13226.760933 12188.656055 8151.733151 6593.778084 6675.292111 5456.322833 26120.908533 24002.056502 22363.779488 19477.584011 17226.919264 13776.608572 10732.677731 10089.209074 4367.650401 8208.251186 280.980283 25761.900131 23572.815980 21552.814660 19275.467144 16304.779017 14337.138795 9599.686803 10901.069282 1406.475885 9976.170944 3239.792677 25336.627639 22804.815786 20957.484938 18951.671143 15318.316731 14510.984925 9267.339219 10552.638403 1622.797523 9613.634463 3990.063913 24473.973147 21905.935312 20398.555644 18578.256855 14736.493767 14139.976745 9443.611891 10002.484688 3815.572761 6788.698382 4672.491984 23890.176381 21181.923652 19889.550288 18108.594777 14518.915601 13712.572927 9800.941391 8971.554842 5270.549889 3506.791024 6014.678472 23753.256636 20675.444369 19494.601971 17630.020844 14460.613589 13372.570703 10254.470234 8311.604644 6216.548055 2044.232191 8658.003748 23630.806967 20119.502780 19214.882560 17244.402453 14503.077735 13151.043691 10554.670529 7964.863631 7368.749971 1826.854801 11359.840665 22988.535627 19468.556444 18937.610874 16978.822399 14581.980763 13058.117686 10672.031734 7970.923485 8181.004988 1717.992464 13308.779918 22014.672435 18995.339409 18575.834044 16787.808488 14633.945006 13021.531022 10795.886158 8224.779877 8339.740283 1859.578910 13714.628194 21302.630346 18685.835526 18200.151691 16599.741547 14670.640120 12937.935840 10915.236011 8486.654987 7997.746837 2521.677252 11872.173574 20784.413621 18486.563542 17871.690909 16349.026846 14704.164062 12823.310242 11025.370753 8627.055689 7429.085334 3190.772983 8820.834007 20191.953067 18243.210219 17622.554247 16023.065011 14711.222459 12665.593638 10970.147061 8606.061029 6878.562077 3571.491687 6284.702419 19601.413351 17991.232293 17442.731236 15619.957505 14680.169719 12457.578071 10940.892261 8624.302110 6537.497337 3780.148185 4783.928371 19077.456833 17694.204920 17298.742696 15119.472611 14552.998873 12204.537273 10851.641495 8548.513393 6412.857447 3972.576915 3934.790594 18618.558308 17294.086443 17157.112512 14525.292686 14253.246222 11838.552843 10580.392385 8381.216402 6297.383042 4061.789606 3405.570353 18223.628897 16724.715149 16922.841417 13847.507829 13734.333066 11315.769903 10068.019845 8019.242658 6059.873912 3988.100118 2949.714357 17873.613775 16023.560180 16516.666425 13113.246527 13009.977220 10635.085899 9332.726171 7462.700938 5491.087538 3710.790215 2498.396604 17538.941320 15266.197982 15946.318625 12376.905446 12169.855379 9878.598143 8479.144357 6782.715345 4905.770134 3451.540253 2069.272309 17100.149359 14461.395214 15257.991997 11694.372831 11330.942303 9157.980678 7648.021330 6113.596985 4308.189621 3036.459355 1693.347979 16526.320037 13638.298431 14491.915669 11085.877345 10578.146934 8559.179247 6950.816812 5559.504662 3785.344624 2663.227822 1404.019980 15748.277906 12812.551430 13685.154665 10533.553279 9927.054198 8101.576897 6427.110175 5161.698559 3393.674706 2391.013549 1214.982316 14881.409998 11965.233653 12845.282198 9995.512429 9335.538559 7734.381125 6039.006528 4887.715142 3126.549918 2221.158281 1108.415242 13905.027757 11083.501957 11958.477874 9421.691181 8741.951524 7375.869057 5709.950398 4667.377477 2938.961728 2119.706078 1050.003078 12850.168422 10117.141468 10997.761257 8786.934556 8103.846793 6956.615228 5365.797756 4429.817143 2774.644522 2039.028297 1003.128930 11789.824670 9116.015127 9977.123942 8101.114558 7418.894532 6454.083419 4969.491046 4135.335407 2593.017574 1941.241256 943.370842 10863.809030 8345.474236 9025.150690 7405.334608 6719.646714 5894.782723 4529.266108 3785.928538 2382.703911 1811.709830 864.051478 10054.113762 7639.327254 8186.910211 6749.302053 6058.526479 5331.612367 4083.761825 3413.581823 2156.846152 1657.624052 772.842079 9377.466527 7054.020724 7473.709849 6177.756661 5482.122397 4817.530865 3678.536080 3060.372821 1940.588216 1498.602122 684.140225 8838.754271 6611.509128 6899.811535 5713.728917 5015.565085 4387.751512 3346.684412 2760.611936 1757.565329 1355.322456 611.239045 8405.938976 6283.964550 6447.661652 5352.864708 4662.968715 4056.260512 3101.860475 2531.518723 1621.628728 1241.903897 561.737164 8057.239919 6057.811749 6105.498811 5084.071216 4412.406911 3819.061464 2940.888456 2373.985980 1535.485689 1163.388717 536.759124 7778.089342 5915.186011 5858.907337 4895.615455 4246.726332 3661.897913 2850.769016 2278.929200 1493.728720 1117.340054 532.703842 7568.695872 5849.976697 5693.357447 4775.948737 4152.642002 3569.941367 2816.417956 2234.042106 1487.314587 1097.419302 543.908295 7430.138996 5856.927245 5603.884176 4718.278784 4120.713745 3532.479951 2825.583976 2228.677733 1507.662803 1096.709364 564.928296 7364.292416 5924.044150 5587.783655 4721.584235 4145.635928 3544.381403 2870.411160 2255.561503 1548.696041 1109.759752 591.864556 7382.322609 6054.172753 5647.400379 4787.746157 4224.105295 3603.252551 2947.018615 2310.627585 1606.731337 1133.124696 622.657477 7491.221852 6246.194809 5783.683607 4917.143074 4354.581327 3707.399509 3053.333672 2391.376495 1679.502714 1165.032587 656.566538 7686.015485 6497.540173 5993.072438 5102.957219 4533.416068 3854.200378 3186.990019 2495.080671 1764.985550 1204.383296 693.380559 7960.732191 6803.720950 6265.289698 5338.241803 4753.337143 4037.181357 3344.060668 2617.785790 1860.641286 1250.041488 732.712938 8295.699464 7140.089877 6581.642025 5614.324784 5003.794255 4245.184083 3518.214963 2754.190250 1962.669686 1300.562509 773.784289 8666.350027 7490.404092 6921.299602 5908.819056 5269.825334 4465.791543 3699.314862 2897.790862 2066.529593 1353.453558 815.471231 9035.234415 7831.715232 7263.270816 6198.880343 5534.485208 4688.065504 3877.219059 3040.441254 2167.998101 1406.027690 856.146336 9374.878458 8139.906882 7584.408615 6467.317736 5780.667728 4896.961300 4043.366845 3173.862340 2261.785484 1455.869976 893.887275 9673.519015 8418.677915 7871.069255 6702.754667 5996.881906 5080.468457 4190.437246 3293.105501 2343.752607 1500.678241 927.019276 9908.905058 8650.483378 8105.098642 6899.424313 6179.466683 5231.534639 4311.584901 3392.504278 2410.841401 1538.295123 954.395385 10078.784658 8830.631590 8270.854241 7043.407129 6318.523823 5343.872690 4403.049689 3467.507014 2460.213890 1566.353898 974.752078 10183.804921 8958.434522 8375.277475 7141.140732 6412.340119 5416.015141 4461.753802 3515.389310 2490.547037 1583.523129 986.918925 10216.621017 9002.947276 8407.794612 7182.309140 6446.833520 5438.229230 4480.166324 3529.147025 2496.537540 1585.786226 989.559016 10201.624921 9004.224414 8382.884830 7175.369868 6430.106443 5415.932888 4461.680889 3511.267606 2479.819042 1573.180437 980.704908 10133.873258 8943.878713 8298.621047 7116.365515 6360.564929 5345.348857 4397.674486 3454.500499 2436.066189 1545.185398 959.945874 10051.566692 8881.168318 8192.932969 7019.182666 6245.173848 5240.900067 4303.023599 3370.410327 2372.543938 1502.158580 927.808496 9939.162089 8757.182715 8055.828255 6906.606458 6107.073754 5113.239381 4185.576738 3266.766473 2301.268271 1455.195865 889.263409 9844.442657 8635.571298 7898.391632 6764.300829 5938.973129 4970.858463 4055.677474 3149.844165 2218.444041 1403.236594 846.644765 9759.489659 8509.909906 7771.994188 6644.808290 5780.376643 4829.228578 3924.303735 3045.584326 2156.488831 1370.675275 811.099164 9589.401422 8284.825943 7551.945642 6454.668045 5598.001630 4694.160151 3802.937015 2939.753394 2078.765010 1324.725014 783.620093 9570.646330 8260.445069 7489.404359 6335.902619 5413.578609 4527.904856 3647.870863 2837.700313 2038.062961 1313.550290 760.898853 9271.244747 7858.918912 7153.693655 6086.074517 5216.664420 4397.817434 3542.618323 2735.249339 1947.583428 1269.724413 758.328697 9266.504200 7926.793505 7132.562603 5938.187140 5003.092657 4172.764923 3332.234981 2601.790692 1884.073057 1218.759837 721.863018 8858.136931 7424.623899 6733.188365 5627.594202 4769.647275 4020.341517 3187.297792 2457.756686 1784.149895 1196.842205 730.188149 8713.856424 7368.995717 6547.413641 5399.327200 4493.338796 3707.091646 2975.089485 2329.527176 1615.390436 1001.007203 678.058124 8303.309063 6935.625794 6181.099690 4991.337781 4168.799436 3477.641378 2650.557893 2028.665005 1576.680912 1125.084383 615.274813 7728.988078 6468.279880 5636.345624 4652.714990 3707.515350 3175.287439 2501.863852 1924.554393 1281.165078 668.180161 669.225988 7419.479617 6181.356651 5110.451075 4058.520297 3359.982524 2527.563097 2005.425959 1599.825608 1344.590235 830.512720 446.221257 6454.558809 5109.546078 4623.767734 3523.288295 2772.633042 2417.962107 1922.977992 1191.706748 598.131400 835.637572 413.134022 6068.760086 4776.222897 3616.202367 2805.081507 1979.468138 1732.090170 1012.348883 1408.859353 1014.211602 92.045463 584.789545 5061.831099 3867.284061 3598.381991 2531.615034 1559.164259 1360.364533 972.020289 60.972887 557.416981 59.334607 277.770361 4076.247976 3597.743145 1969.767633 1463.168446 495.317528 795.392071 732.751074 328.266519 223.924804 450.464877 76.865436 4220.481375 2700.316897 2113.648361 417.574905 1161.934626 -333.270798 -79.765417 -307.873132 -396.831754 -363.766961 164.602364 1198.684661 2699.865055 819.074714 -44.105528 -1223.351927 -445.364640 320.941499 -814.509985 404.700873 -644.310393 161.672514 3057.521475 1091.355240 -314.139242 -207.792703 -1097.444954 -1043.033750 -1841.170174 -754.469713 -236.488819 -1138.190860 314.063791 560.857929 1417.567650 251.136571 -693.589259 -837.089999 -616.383395 -757.690477 -847.004823 -1423.802190 -409.460738 36.432094 2997.918316 -3075.919443 -1270.289966 -1859.579639 -2366.696271 -1838.734952 -1721.365031 -1306.999843 -867.651898 552.150907 -903.977118 33450.247449 31654.827909 28206.706168 26580.014686 23685.906719 20963.806427 19100.263731 16919.798944 13562.482888 10759.797256 7402.126636 5528.943664 -1231.497499 -8200.959149 38208.462308 34812.397512 32991.360611 30289.373492 28286.768140 25411.039602 23039.647269 20059.653082 17069.372254 13850.360318 12486.136189 4358.600288 5278.564500 1304.235545 37170.955112 34387.873916 31978.717434 28776.432563 26387.867597 23474.761625 20902.273418 18400.611420 16554.782382 12074.770806 10938.780294 7797.435513 2877.748395 2893.094847 32252.829004 30440.517098 29519.661107 27936.688628 25999.185460 24397.744414 22803.814883 20173.493390 18068.161735 16122.504038 12069.884852 7698.380674 4021.138628 2988.102815 34144.607523 31707.654252 29586.456549 26906.738761 25287.386059 23329.238392 21152.138149 19062.818207 16542.766364 13320.076569 11194.472069 8303.432283 4320.333967 2663.486104 29082.534265 30468.282319 27696.148225 26922.895595 24381.674699 21410.138002 19577.826330 17747.081024 16286.139221 14354.689605 11238.201856 7533.638436 4173.561528 2655.463447 35820.223326 35055.999198 31693.124403 25064.931168 22127.346334 20837.338364 19299.075204 17374.968243 14949.796151 12258.642597 10135.888511 7590.851676 3954.015848 2410.830608 26333.288801 29230.821192 21764.074833 21043.370267 22802.418925 19785.004321 16886.996527 15225.990498 14173.108199 12218.618984 9741.870485 6779.632140 3328.653330 2160.413076 30158.535611 22026.145075 20019.744143 23337.486665 20535.576510 17164.202050 15916.802048 15212.005051 13386.778309 10838.171062 9038.141621 6711.254160 3391.540269 2219.344611 26671.620065 20601.577528 17588.939620 21072.266541 18915.535180 16717.805435 15667.459245 14132.254219 11424.577167 10375.531941 8664.536155 5634.358279 2995.039775 2359.861148 17308.363251 18527.725481 16961.157475 15283.442896 13615.973555 13390.669294 12423.467945 10685.691662 8942.423257 9297.483987 7724.340665 5169.388590 2990.727235 2467.535564 13691.792472 9174.585214 17939.119175 15103.210390 12394.583535 8861.806572 7665.465030 8172.021109 8469.871369 8623.718681 6607.947585 3754.775589 1819.748253 2422.756005 14092.029568 10811.356315 6107.432613 10956.301533 12883.346223 13294.147690 10266.557707 8616.127023 8529.748916 7853.066395 6808.749854 -288.324194 1951.676853 2303.320191 -697.851826 6366.603294 -2327.101463 7014.188965 61.867288 -609.374117 10761.001927 11613.367560 516.691530 11687.617796 9223.933745 2593.402119 4913.486398 2334.156987 -3252.478365 -6956.034932 6620.840215 5727.825753 -9182.504517 3742.481516 1498.321581 3539.304991 -2299.820255 5223.080283 7934.442908 8347.192287 3195.602593 3483.926549
</DataArray>
<DataArray type="Float64" Name="Velocity" NumberOfComponents="3" format="ascii">