<VTKFile type="PolyData">
<PolyData>
<Piece NumberOfPoints="1945" NumberOfVerts="1945" NumberOfLines="0" NumberOfStrips="0" NumberOfPolys="0">
<PointData>
<DataArray type="Float64" Name="Pressure" format="ascii">
 44308.301535 49826.339254 52080.502692 57938.411498 49719.151142 55010.800631 46770.550736 53489.475797 47086.782068 53962.105030 46266.757577 53092.473372 45861.142559 52515.211638 45683.768464 52140.304461 45410.822582 51551.595068 45081.014341 50911.017101 44615.046494 49990.291293 44066.286395 49011.491681 43400.617776 47522.914523 42650.411366 46182.162959 41913.278134 44825.848140 41193.857987 43425.867716 40515.683164 42101.319943 39907.952455 40901.803160 39368.268327 39818.643374 38900.863681 38884.788975 38507.789933 38101.442190 38184.688167 37457.252237 37925.774932 36946.962090 37721.937803 36548.253058 37563.474534 36240.824257 37442.092706 36007.114829 37350.515408 35830.913804 37282.717792 35699.985010 37233.616674 35604.347842 37198.923139 35535.957576 37175.050399 35488.233128 37159.068808 35455.797942 37148.663899 35434.354178 37142.075199 35420.569210 37138.015614 35411.951930 37135.580368 35406.711511 37134.157085 35403.609432 37133.346006 35401.820696 37132.894973 35400.815176 37132.650021 35400.263676 37132.519993 35399.968298 37132.452475 35399.813683 37132.418152 35399.734517 37132.401057 35399.694836 37132.392709 35399.675349 37132.388709 35399.665966 37132.386827 35399.661532 37132.385957 35399.659475 37132.385562 35399.658538 37132.385385 35399.658117 37132.385307 35399.657932 37132.385274 35399.657851 37132.385259 35399.657816 37132.385253 35399.657801 37132.385250 35399.657794 37132.385248 35399.657787 37132.385244 35399.657775 37132.385236 35399.657744 37132.385213 35399.657664 37132.385153 35399.657460 37132.384999 35399.656945 37132.384613 35399.655675 37132.383664 35399.652619 37132.381387 35399.645429 37132.376046 35399.628916 37132.363815 35399.591922 37132.336495 35399.511155 37132.277008 35399.339443 37132.150866 35398.984307 37131.890586 35398.270487 37131.368480 35396.877593 37130.351319 35394.241939 37128.428727 35389.411845 37124.906920 35380.851153 37118.662697 35366.201316 37107.962543 35342.044437 37090.272253 35303.759636 37062.117992 35245.629572 37019.104510 35161.445503 36956.229310 35045.771396 36868.679709 34895.792656 36753.118565 34714.492199 36609.155972 34510.645398 36441.303155 34301.364614 36258.321118 34111.409976 36071.837823 33955.907205 35897.687159 33853.057906 35745.950065 33841.311698 35634.592765 33903.142064 35594.698915 34069.544996 35626.221369 34328.610454 35724.130458 34675.198483 35888.509093 35065.449559 36096.711505 35470.661215 36340.348432 35885.669571 36628.392119 36442.077835 36916.806538 36880.738068 37278.029443 37548.043453 37706.960209 38164.804734 38493.025542 39200.362169 39425.112967 40266.676579 40469.538009 41110.561859 44567.924620 45259.411192 45631.105844 48281.348445 40403.400982 43408.582814 46200.382444 42857.007951 40419.561857 37575.157860 35322.925989 33342.748896 31439.026908 29582.407817 27711.787377 25721.141959 23467.080661 20806.492182 17782.106359 14603.626147 11506.099833 8703.022423 6342.206343 4486.386119 3081.452346 1975.500957 1489.570891 2601.402830 3837.427311 -443.300445 -5525.596660 -5122.827305 -3384.596895 -2058.343606 -1189.991841 -654.489213 -343.871428 -173.255006 -83.995653 -39.301924 -17.795567 -7.815974 -3.337011 -1.387643 -0.563000 -0.223227 -0.086622 -0.032941 -0.012291 -0.004505 -0.001624 -0.000576 -0.000201 -0.000069 -0.000024 -0.000008 -0.000003 53290.565850 51265.451012 49066.162783 45813.048786 43390.557349 41162.990540 38857.561723 36855.904848 34998.495394 34046.964279 32564.681091 30383.120996 27482.981925 23914.522360 19836.698311 15669.149950 11827.539737 8610.056290 6100.412033 3956.891704 2449.850199 2402.481059 1611.483092 -3664.596505 -7597.775560 -5016.384077 -3372.405855 -2131.182169 -1258.266321 -704.078712 -375.954954 -192.476591 -94.828198 -45.095783 -20.754632 -9.265853 -4.021191 -1.699593 -0.700818 -0.282370 -0.111329 -0.043008 -0.016299 -0.006067 -0.002220 -0.000799 -0.000283 -0.000099 -0.000034 -0.000012 -0.000004 41979.565597 36487.093369 32810.967368 27838.976264 23609.933270 19655.846441 15752.791620 11745.441840 7232.519841 4160.363759 4221.538452 1872.302569 194.781224 -217.882329 -269.472158 -206.361158 -130.996547 -74.427032 -39.123673 -19.372442 -9.136687 -4.135364 -1.805969 -0.764115 -0.314239 -0.125937 -0.049293 -0.018878 -0.007085 -0.002610 -0.000944 -0.000336 -0.000118 -0.000041 -0.000014 -0.000005 -0.000002 -0.000001 -0.000000 -0.000000 -0.000000 -0.000000 -0.000000 -0.000000 0.000000 0.000000 0.000000 0.000000 -0.000000 -0.000000 0.000000 39886.346344 35116.909006 31441.159054 27380.595235 23701.849905 20028.707680 16268.876946 12316.289310 8324.311683 5053.380960 3122.954113 1392.060464 309.036630 -140.137841 -236.218998 -197.921978 -132.320350 -78.052149 -42.294153 -21.498464 -10.380934 -4.801640 -2.140110 -0.923200 -0.386779 -0.157811 -0.062851 -0.024480 -0.009341 -0.003496 -0.001285 -0.000465 -0.000165 -0.000058 -0.000020 -0.000007 -0.000002 -0.000001 -0.000000 -0.000000 -0.000000 -0.000000 -0.000000 -0.000000 0.000000 0.000000 0.000000 0.000000 0.000000 -0.000000 -0.000000 -0.000001 -0.000000 -0.000001 -0.000000 -0.000001 -0.000000 -0.000000 -0.000000 -0.000000 -0.000000 -0.000000 -0.000000 -0.000000 -0.000000 -0.000000 -0.000000 -0.000000 -0.000000 -0.000000 -0.000000 -0.000000 -0.000000 0.000000 0.000000 0.000000 0.000000 0.000000 0.000000 -0.000000 -0.000000 -0.000000 -0.000000 -0.000000 -0.000000 -0.000000 -0.000000 -0.000000 -0.000000 -0.000000 -0.000000 -0.000000 -0.000000 -0.000000 -0.000000 -0.000000 -0.000000 0.000000 -0.000000 0.000000 -0.000000 0.000000 0.000000 0.000000 0.000000 0.000000 0.000000 0.000000 0.000000 0.000000 0.000000 0.000000 0.000000 0.000000 0.000000 0.000000 0.000000 0.000000 0.000000 0.000000 0.000000 0.000000 0.000000 0.000000 0.000000 0.000000 0.000000 0.000000 0.000000 0.000000 0.000000 0.000000 0.000000 0.000000 0.000000 0.000000 0.000000 0.000000 0.000000 0.000000 0.000000 0.000000 0.000000 0.000000 0.000000 0.000000 0.000000 0.000000 0.000000 0.000000 0.000000 0.000000 0.000000 0.000000 0.000000 0.000000 0.000000 0.000000 0.000000 0.000000 0.000000 0.000000 0.000000 0.000000 0.000000 0.000000 0.000000 0.000000 0.000000 0.000000 0.000000 0.000000 0.000000 0.000000 0.000000 0.000000 0.000000 0.000000 0.000000 0.000000 0.000000 0.000000 0.000000 0.000000 0.000000 0.000000 0.000000 0.000000 0.000000 0.000000 0.000000 0.000000 0.000000 0.000000 0.000000 0.000000 0.000000 0.000000 0.000000 0.000000 0.000000 0.000000 0.000000 0.000000 0.000000 0.000000 0.000000 0.000000 0.000000 0.000000 0.000000 0.000000 0.000000 0.000000 0.000000 0.000000 0.000000 0.000000 0.000000 0.000000 0.000000 0.000000 0.000000 0.000000 0.000000 0.000000 0.000000 0.000000 0.000000 0.000000 0.000000 0.000000 0.000000 0.000000 0.000000 0.000000 0.000000 0.000000 0.000000 0.000000 0.000000 0.000000 0.000000 0.000000 0.000000 0.000000 0.000000 0.000000 0.000000 0.000000 0.000000 0.000000 0.000000 0.000000 0.000000 0.000000 0.000000 0.000000 0.000000 0.000000 0.000000 56546.998095 55046.964630 52797.797828 51186.412353 49399.755744 47517.262649 45451.147937 43302.389114 41266.069847 39006.012954 37228.262693 56370.573150 55960.003621 52864.241185 51401.373653 48866.181234 46906.725555 44643.316107 42552.044437 40370.540874 38434.039231 36439.806465 55283.174497 54915.085340 53445.938289 50628.363432 49070.737090 46667.381557 44267.555785 41962.462442 39540.100551 37657.222044 35577.898603 55228.730033 54900.129133 52385.699993 50346.456094 48755.662838 45870.783835 44092.371949 41670.563586 39192.738435 37031.986474 34585.977814 54849.645015 54620.413453 52560.383371 49939.404436 47512.527105 44985.501394 42847.943119 40259.521967 38014.743801 35989.055329 33673.013222 54171.636079 53657.037585 51374.456206 48925.676241 47259.659203 44504.506656 41976.318299 39381.397223 36859.091017 34582.506473 32177.742205 53424.399871 53036.577027 50832.710443 48122.819391 45905.215582 42933.540439 40645.335751 38102.902766 35547.064884 33312.399837 30856.485873 52649.890114 52188.036790 49804.272311 46955.933746 44830.232294 41919.183217 39386.627603 36603.976053 33974.933130 31680.200518 29168.591382 51441.359778 50852.803837 48530.345274 45737.487670 43517.750729 40460.379122 37837.482644 35080.001498 32457.448097 30114.945406 27548.649092 50569.036587 49856.860934 47425.706679 44444.034466 42029.555128 38919.723004 36276.941722 33485.167711 30762.908818 28269.836952 25584.630552 49183.883665 48356.596880 45863.286786 42946.086461 40509.920448 37370.086490 34664.378474 31726.625609 28876.367176 26472.859780 23969.458206 47837.619582 47024.399366 44423.174227 41466.116212 38920.272938 35704.598580 32869.152181 29857.187699 27235.831523 24841.133906 21833.010909 46324.086068 45534.541043 42837.783956 39863.144306 37280.137895 33980.094113 31038.873739 28172.836451 25264.347508 22067.692486 19364.859526 44733.520805 44044.587155 41265.734965 38270.745052 35644.624949 32216.948601 29277.700081 26258.677132 22658.046910 20698.652737 18144.943749 43226.455344 42605.608932 39729.020410 36710.205212 34025.874923 30484.728329 27558.900553 24129.180891 20938.467604 18672.823089 12994.479066 41811.829224 41211.971419 38265.139000 35219.589138 32474.023546 28833.584824 25844.184101 22016.417455 19299.947559 14484.107366 20218.012569 40516.327572 39949.564027 36938.317053 33837.320774 31036.365613 27301.387403 24215.331781 20228.860038 17492.160085 11248.265909 15908.092857 39393.130917 38837.607769 35746.172517 32591.721506 29746.400104 25930.768826 22718.352364 18734.220675 15469.001849 10040.107346 10555.978178 38435.752313 37867.542590 34712.090585 31519.093096 28623.170956 24760.260494 21425.448990 17547.574088 13718.379101 9085.821788 7398.940443 37637.466656 37054.593254 33852.431077 30619.539206 27669.945369 23789.003214 20375.674183 16576.507179 12532.521983 8306.261418 5759.995970 36998.407145 36394.467674 33146.458104 29877.541157 26890.101621 22998.867589 19560.338048 15804.613123 11741.834360 7736.152998 4928.635252 36492.155775 35863.694719 32578.289009 29282.941462 26271.127840 22369.954818 18928.316820 15217.986084 11190.519443 7346.860694 4493.019260 36099.127408 35449.880283 32135.011114 28816.313984 25785.459866 21879.684056 18442.531128 14773.554046 10798.919245 7075.126289 4238.598222 35798.800569 35131.786472 31792.566114 28454.419084 25408.769410 21501.829220 18073.402299 14439.023584 10515.156804 6881.096848 4077.251994 35570.935916 34889.580368 31531.218402 28178.160434 25121.494620 21214.113413 17794.480355 14188.643091 10308.585808 6741.426348 3969.113397 35400.417878 34708.050122 31334.924517 27970.286648 24905.486440 20998.314710 17586.306408 14002.677557 10157.636767 6639.746717 3893.936852 35274.672403 34573.849317 31189.630415 27816.298395 24745.671958 20839.196237 17433.673612 13866.987164 10048.713592 6566.383845 3841.217627 35183.703862 34476.407713 31084.079138 27704.482516 24629.866887 20724.266251 17323.943363 13769.844676 9971.366112 6514.208928 3804.414248 35119.393253 34407.189157 31009.071985 27625.090670 24547.867945 20643.204754 17246.919869 13701.923354 9917.609530 6477.859058 3779.100133 35075.070972 34359.201099 30957.057349 27570.098949 24491.241140 20587.461535 17194.218787 13655.640168 9881.162060 6453.150247 3762.049018 35045.342242 34326.793609 30921.921112 27533.004534 24453.166914 20550.143833 17159.112640 13624.934286 9857.085420 6436.787690 3750.834889 35025.951583 34305.498395 30898.823791 27508.656418 24428.258174 20525.837957 17136.360674 13605.114809 9841.604226 6426.242803 3743.646439 35013.654301 34291.887777 30884.053944 27493.110139 24412.405768 20510.436975 17122.014874 13592.668405 9831.916181 6419.630529 3739.157937 35006.069691 34283.425903 30874.865722 27483.453315 24402.590144 20500.941708 17113.212335 13585.061448 9826.014112 6415.594980 3736.427894 35001.517879 34278.306621 30869.302978 27477.615292 24396.674355 20495.242759 17107.953548 13580.534334 9822.512088 6413.196580 3734.809831 34998.858034 34275.291142 30866.023587 27474.178342 24393.201845 20491.910872 17104.892647 13577.909031 9820.486852 6411.807522 3733.874757 34997.343481 34273.560472 30864.139737 27472.206539 24391.215188 20490.011918 17103.155531 13576.424378 9819.344471 6411.022913 3733.347473 34996.502425 34272.591927 30863.084423 27471.103284 24390.106536 20488.956030 17102.193516 13575.604926 9818.715417 6410.590300 3733.057103 34996.046548 34272.062960 30862.507454 27470.500769 24389.502558 20488.382750 17101.673186 13575.163101 9818.376976 6410.357249 3732.900810 34995.805156 34271.780794 30862.199333 27470.179326 24389.181067 20488.078568 17101.398084 13574.930192 9818.198912 6410.234479 3732.818513 34995.680181 34271.633660 30862.038472 27470.011658 24389.013724 20487.920703 17101.255785 13574.810047 9818.107217 6410.171176 3732.776082 34995.616865 34271.558598 30861.956303 27469.926077 24388.928473 20487.840499 17101.183712 13574.749347 9818.060962 6410.139200 3732.754645 34995.585449 34271.521102 30861.915203 27469.883297 24388.885931 20487.800576 17101.147938 13574.719287 9818.038086 6410.123364 3732.744022 34995.570171 34271.502748 30861.895056 27469.862338 24388.865120 20487.781091 17101.130523 13574.704684 9818.026985 6410.115668 3732.738854 34995.562882 34271.493936 30861.885370 27469.852265 24388.855132 20487.771758 17101.122201 13574.697719 9818.021695 6410.111995 3732.736385 34995.559469 34271.489784 30861.880799 27469.847513 24388.850425 20487.767368 17101.118295 13574.694455 9818.019218 6410.110272 3732.735226 34995.557899 34271.487863 30861.878681 27469.845310 24388.848246 20487.765339 17101.116493 13574.692951 9818.018077 6410.109477 3732.734690 34995.557188 34271.486989 30861.877715 27469.844307 24388.847254 20487.764416 17101.115675 13574.692269 9818.017560 6410.109116 3732.734446 34995.556872 34271.486597 30861.877283 27469.843857 24388.846809 20487.764004 17101.115310 13574.691965 9818.017329 6410.108955 3732.734337 34995.556734 34271.486425 30861.877092 27469.843658 24388.846613 20487.763822 17101.115149 13574.691831 9818.017228 6410.108884 3732.734288 34995.556674 34271.486350 30861.877008 27469.843571 24388.846528 20487.763742 17101.115079 13574.691773 9818.017183 6410.108853 3732.734267 34995.556648 34271.486317 30861.876972 27469.843533 24388.846490 20487.763707 17101.115048 13574.691747 9818.017164 6410.108839 3732.734258 34995.556634 34271.486300 30861.876953 27469.843514 24388.846471 20487.763690 17101.115033 13574.691735 9818.017155 6410.108833 3732.734254 34995.556622 34271.486285 30861.876936 27469.843497 24388.846455 20487.763676 17101.115021 13574.691726 9818.017148 6410.108829 3732.734251 34995.556599 34271.486256 30861.876906 27469.843467 24388.846427 20487.763652 17101.115001 13574.691711 9818.017138 6410.108822 3732.734247 34995.556543 34271.486187 30861.876831 27469.843393 24388.846359 20487.763594 17101.114954 13574.691674 9818.017113 6410.108806 3732.734238 34995.556399 34271.486008 30861.876640 27469.843205 24388.846186 20487.763444 17101.114833 13574.691582 9818.017049 6410.108766 3732.734215 34995.556030 34271.485557 30861.876159 27469.842732 24388.845748 20487.763068 17101.114527 13574.691348 9818.016887 6410.108663 3732.734157 34995.555113 34271.484441 30861.874970 27469.841562 24388.844665 20487.762136 17101.113767 13574.690767 9818.016485 6410.108408 3732.734012 34995.552874 34271.481740 30861.872098 27469.838738 24388.842050 20487.759881 17101.111925 13574.689354 9818.015504 6410.107785 3732.733658 34995.547542 34271.475352 30861.865324 27469.832081 24388.835881 20487.754551 17101.107561 13574.686000 9818.013171 6410.106301 3732.732810 34995.535136 34271.460614 30861.849731 27469.816763 24388.821678 20487.742261 17101.097474 13574.678228 9818.007754 6410.102852 3732.730832 34995.506981 34271.427454 30861.814735 27469.782402 24388.789795 20487.714623 17101.074734 13574.660661 9817.995482 6410.095030 3732.726328 34995.444697 34271.354762 30861.738216 27469.707323 24388.720077 20487.654076 17101.024785 13574.621968 9817.968390 6410.077740 3732.716333 34995.310510 34271.199651 30861.575383 27469.547668 24388.571712 20487.524978 17100.917987 13574.538999 9817.910154 6410.040530 3732.694735 34995.029234 34270.877798 30861.238476 27469.217608 24388.264758 20487.257342 17100.695930 13574.365962 9817.788386 6409.962631 3732.649326 34994.456171 34270.229060 30860.561431 27468.554953 24387.648015 20486.718460 17100.247439 13574.015357 9817.540990 6409.804173 3732.556553 34993.322593 34268.960255 30859.241428 27467.264428 24386.445987 20485.665871 17099.368567 13573.325991 9817.053167 6409.491346 3732.372573 34991.147995 34266.555222 30856.747621 27464.829462 24384.176320 20483.673870 17097.699677 13572.012335 9816.120787 6408.892745 3732.018883 34987.107409 34262.142665 30852.188094 27460.384332 24380.030081 20480.026449 17094.633087 13569.589598 9814.395848 6407.784094 3731.360676 34979.845525 34254.317663 30844.132097 27452.544780 24372.713124 20473.574682 17089.188862 13565.271952 9811.311758 6405.799899 3730.176824 34967.241479 34240.927257 30830.399814 27439.210613 24360.261257 20462.569345 17079.867015 13557.849710 9805.992119 6402.374438 3728.122630 34946.154799 34218.859245 30807.861236 27417.382440 24339.868622 20444.503259 17064.504564 13545.567460 9797.158296 6396.682132 3724.691110 34912.230788 34183.921244 30772.333252 27383.080006 24307.809959 20416.034058 17040.196782 13526.050191 9783.069406 6387.599371 3719.186034 34859.907340 34130.952176 30718.717642 27331.501219 24259.586204 20373.102257 17003.380174 13496.355740 9761.551308 6373.724898 3710.729601 34782.834392 34054.351236 30641.554585 27257.584638 24190.445623 20311.385434 16950.203024 13453.258230 9730.191574 6353.508968 3698.336507 34675.000131 33949.278077 30536.219863 27157.157648 24096.421767 20227.206257 16877.291843 13393.861194 9686.778493 6325.542887 3681.088344 34532.588482 33813.412748 30400.714377 27028.703994 23975.959753 20118.952468 16782.950446 13316.573488 9630.018055 6289.034281 3658.429002 34356.232532 33648.528254 30237.138492 26874.934737 23831.630130 19988.788210 16668.689713 13222.369287 9560.467899 6244.427213 3630.563895 34154.514733 33463.474339 30054.063445 26704.182168 23671.104896 19843.802204 16540.575997 13116.054825 9481.505406 6194.035122 3598.884635 33941.684786 33271.485242 29866.491867 26531.915116 23508.240300 19696.333086 16409.596444 13006.933341 9399.984121 6142.469219 3566.278801 33738.513664 33085.885610 29688.119986 26374.930118 23361.849360 19564.017587 16291.123116 12908.324969 9326.102459 6096.582662 3537.150905 33573.043020 32930.862872 29540.683962 26248.378137 23248.563924 19466.613920 16203.512254 12836.055488 9272.219007 6064.693856 3517.000551 33455.826972 32816.143624 29448.726271 26175.106034 23182.939227 19420.300574 16164.548188 12806.045861 9250.818505 6055.107999 3511.513399 33412.504679 32751.919700 29418.106579 26172.193664 23181.288346 19436.657135 16187.107919 12831.003722 9272.007201 6074.251868 3525.304733 33491.397751 32770.848078 29458.033556 26239.427467 23253.857189 19523.470176 16277.108819 12917.280194 9341.009180 6124.882546 3560.629050 33606.594665 32872.340593 29584.604824 26374.660772 23399.669713 19682.118423 16433.373028 13063.679877 9456.807831 6205.096675 3616.505015 33779.657277 33031.752209 29789.596582 26579.692670 23613.252788 19906.640225 16648.345900 13262.254720 9612.352167 6308.445988 3688.541263 34059.562917 33273.995137 30071.349063 26857.575366 23891.901411 20188.611327 16909.517887 13498.557015 9794.841286 6424.707503 3769.523199 34420.234038 33572.807618 30408.119330 27187.438151 24226.365238 20519.521613 17206.004103 13758.499414 9990.701137 6542.988939 3851.023900 34802.052309 33931.543479 30824.559025 27565.651857 24602.804949 20883.542822 17528.570485 14032.764355 10188.575272 6652.510879 3924.014907 35218.971239 34387.957164 31324.301242 28008.373687 25033.380513 21264.720245 17846.699066 14293.594209 10372.546147 6744.963114 3981.012006 35638.960257 34782.463496 31718.304806 28435.783501 25522.938247 21699.325933 18188.802590 14548.477791 10544.241889 6823.569287 4021.294018 36379.443065 35606.516277 32438.203681 28961.125756 25923.121890 22050.067654 18521.522669 14785.638971 10668.818345 6859.056399 4036.124776 36774.745024 35884.870890 32804.366345 29487.794321 26465.881143 22437.319559 18796.696597 15006.482466 10817.592751 6897.697242 4024.570530 37675.006987 36756.993230 33485.584049 30001.294861 27020.760302 22962.320191 19056.592600 15130.089607 10905.993554 6890.542119 3993.624532 38378.014035 37491.804552 34293.716694 30693.979282 26982.273744 22986.165008 19422.048421 15242.343082 10914.806314 6886.892082 3928.155018 39034.816381 38086.815424 34383.689315 31058.243103 28200.618675 23627.841124 19743.240605 15484.581631 11148.526823 6981.490045 3957.729439 39923.150116 38369.088170 35922.841552 31485.405782 27957.877213 23667.334434 19306.863287 15384.713983 10859.705552 6429.978600 3820.536203 41901.034312 41112.721407 36503.338621 33499.180362 28930.647369 24969.685126 20632.231517 16095.823851 11316.266363 7272.901627 4761.517909 45336.746517 38708.111618 35373.078637 31627.720989 28019.602662 24018.075279 19910.496961 15391.610912 11462.930160 7267.828723 2935.746163 35358.459682 33168.082788 30681.826431 27814.425838 24414.986358 20618.627174 16711.914426 12967.279001 9649.867956 6913.833272 4694.718473 3350.674184 -828.100772 2361.258525 33972.776109 31369.625823 28518.803738 25568.921591 22450.222962 19210.874253 15924.250025 12702.589284 9728.152987 7143.768515 4818.466870 3692.915375 2539.475876 1669.123734 33578.808485 31203.362684 28561.196351 25781.301049 22841.381184 19777.832877 16614.551452 13444.905173 10437.028759 7836.401424 5497.946957 3214.965232 1851.433363 997.213533 32120.363404 29531.159557 26832.785251 24195.618463 21569.844379 18906.077406 16125.747476 13261.944528 10419.267052 7792.910427 5721.524351 3832.649998 2113.400622 1211.520708 31380.334107 28746.329534 26025.592758 23426.430105 20924.764128 18458.276368 15890.304571 13201.368837 10512.962446 7903.619706 5585.137523 3707.968704 2151.446269 1146.033095 29725.323778 27087.794374 24462.489665 22040.458741 19789.970172 17619.328671 15346.667707 12888.138224 10352.244177 7918.302858 5694.205890 3728.830086 2096.449580 1145.138406 28352.269459 25668.515806 23055.075624 20721.624526 18644.043068 16699.794869 14672.050737 12446.240005 10064.300169 7703.927605 5565.439204 3705.164731 2104.223131 1116.930320 26632.998619 23985.697027 21450.945370 19255.625605 17372.393683 15658.173946 13864.975288 11862.490550 9684.143124 7469.089363 5397.127764 3577.124258 2017.400281 1080.643317 24984.770387 22293.324943 19786.996645 17686.799667 15953.678462 14432.640143 12857.457703 11068.681843 9085.917299 7051.045197 5131.838746 3425.871321 1936.326016 1027.797318 22925.970769 20302.178574 17910.198941 15958.639339 14386.260617 13033.548398 11648.311737 10071.575557 8301.970355 6461.661972 4711.272092 3149.739373 1778.611211 946.971627 21446.679810 18731.085774 16223.023822 14211.252808 12680.995452 11438.798495 10206.180879 8825.532556 7287.537845 5688.105694 4160.755179 2791.009290 1578.112242 841.095437 18729.286563 16032.748183 13815.333414 12034.187287 10627.509143 9515.446449 8461.757881 7305.668849 6031.075617 4711.734987 3452.649340 2322.063257 1315.490619 705.415641 17521.193731 15059.780995 12258.045500 10095.448846 8602.396570 7507.667008 6556.981323 5598.278931 4591.905584 3576.653512 2619.880668 1766.972809 1004.256877 542.434626 13649.958491 10038.229938 8008.045536 6672.252062 5463.308422 4625.981161 3963.472270 3352.989838 2746.669909 2146.581779 1582.107679 1075.384246 607.389930 356.319887 20832.372826 18301.200806 10933.680951 6727.758761 4341.861068 3158.206050 2529.387611 2092.746894 1713.477565 1351.666201 1009.733585 699.464734 427.875505 335.610713
</DataArray>
<DataArray type="Float64" Name="Velocity" NumberOfComponents="3" format="ascii">