<VTKFile type="PolyData">
<PolyData>
<Piece NumberOfPoints="1945" NumberOfVerts="1945" NumberOfLines="0" NumberOfStrips="0" NumberOfPolys="0">
<PointData>
<DataArray type="Float64" Name="Pressure" format="ascii">
 18506.527646 18145.560847 19529.644350 18982.934135 18799.100643 17908.198048 17405.816881 17792.481400 17562.573465 18697.271548 17990.450589 18474.546824 19907.262518 19532.738243 21607.945104 20447.933554 23534.359452 22975.755664 21908.330071 21945.263016 21628.741067 22326.165716 21406.561466 21552.233399 21258.080066 20835.650291 22547.836368 22893.773073 22856.795479 23214.636418 22613.222816 22824.956295 24201.736173 23646.627447 24921.087272 24835.621137 22861.958202 22647.609691 23995.886931 23605.339805 25459.852186 24595.942325 25481.112238 24124.989883 25802.048533 24630.851751 24740.563282 23598.847448 22767.759531 21091.077984 24265.170122 21985.642030 26405.301483 24592.584184 24889.429210 23451.251080 23470.426967 21783.177376 23205.806615 21553.415189 24274.878879 22639.405061 24793.746185 23437.137094 23890.726296 23227.020026 23126.857078 21995.380326 22851.169203 22026.910748 22586.783259 21767.657859 22525.655725 21749.413702 22278.218524 21501.741078 22642.646938 22067.733596 22319.433329 21353.925241 21926.890210 20621.051926 22443.952149 21758.246372 23449.832314 22319.611605 22667.342469 22515.942923 20510.936119 20074.985339 21618.976160 21060.270041 21634.331247 19542.536980 22138.190081 18577.605312 24136.674168 24368.786361 26974.800915 28962.044509 38822.072923 54455.412586 41035.270409 56700.384613 32826.491218 29863.834376 34367.075784 39914.650179 36450.066045 51461.022862 34239.137347 35932.850441 32233.785140 30318.722442 32119.205874 29854.146706 32188.971707 30930.734309 32209.933960 31696.265353 32028.980641 32412.861872 31043.495995 31391.829768 29468.097002 29257.255922 27901.410741 27635.131211 26485.057826 26303.717039 25150.033793 24895.164218 23955.527284 23649.204198 22985.677562 22677.527155 22271.809605 22066.846933 21730.752668 21678.628773 21219.719466 21262.785849 20650.858940 20702.757869 20034.352491 20073.508935 19415.985667 19493.769027 18797.978395 18964.692891 18132.648528 18386.535624 17373.258852 17670.840224 16515.177584 16809.789172 15593.960270 15864.794243 14654.803486 14904.995710 13727.393302 13963.436165 12823.576808 13043.651686 11948.168923 12146.926290 11106.037935 11282.522434 10301.030126 10458.967929 9533.291767 9676.111802 8800.272396 8927.952391 8100.221139 8210.331537 7434.537667 7525.049583 6807.442199 6878.502070 6223.953520 6277.902598 5687.840336 5728.243988 5200.522246 5231.093755 4761.035117 4784.883725 4366.720613 4386.007366 4014.209785 4030.150337 3700.344345 3713.447729 3422.800317 3433.210576 3180.316851 3188.123023 2972.572692 2977.995298 2799.851841 2803.293210 2662.661643 2664.649720 2561.545488 2562.153770 2497.378115 2496.459335 2469.860161 2468.676090 16951.205066 15747.253838 13335.642649 11139.663887 8792.677918 6069.751767 4259.318558 4143.218822 3276.179168 151.645209 -2199.290851 -1661.553946 -477.695492 -977.574251 -4187.246453 -5245.913385 -4304.508955 -5464.892803 -8441.766704 -9167.188288 -8612.762318 -8286.051329 -7923.261921 -7519.749746 -7087.618326 -6635.662935 -6169.405258 -5693.981359 -5215.105993 -4739.051604 -4272.250482 -3820.824540 -3390.186649 -2984.768637 -2607.881896 -2261.692337 -1947.282258 -1664.770721 -1413.467301 -1192.038867 -998.674246 -831.236392 -687.395728 -564.741603 -460.871235 -373.457267 -300.296565 -239.345902 -188.766053 -147.089445 -114.285319 16825.111772 16111.615985 13803.003959 11872.527711 9763.686462 5915.627317 3974.548534 5566.052823 4044.858136 317.418339 -2213.551722 -1477.400146 -255.221099 -1418.688610 -4962.735765 -5587.338061 -3922.698397 -4934.111851 -8434.625807 -9412.704800 -8590.320786 -8255.306504 -7910.582039 -7513.206619 -7083.876776 -6633.411581 -6168.292171 -5694.008021 -5216.340731 -4741.512964 -4275.874546 -3825.471631 -3395.663890 -2990.855747 -2614.354010 -2268.337402 -1953.912615 -1671.229554 -1419.630971 -1197.816263 -1004.004128 -836.083561 -691.746652 -568.599972 -464.253710 -376.389462 -302.808199 -241.458083 -190.426464 -147.780945 -110.587347 2488.274947 2469.807237 2440.698809 2396.903734 2335.160044 2252.897072 2151.257766 2059.122230 2359.490706 5636.966410 15585.207511 15504.606208 3868.645722 1154.491968 853.823504 732.053617 651.384941 582.766323 519.860444 461.242462 406.643366 356.086620 309.650594 267.384917 229.277274 195.243593 165.131282 138.729733 115.784191 96.010391 79.108310 64.774082 52.709685 42.630317 34.269615 27.382998 21.749435 17.171978 13.477351 10.514855 8.154824 6.286797 4.817553 3.669119 2.776822 2.087438 1.557482 1.151634 0.841233 0.602323 0.410612 2460.902842 2442.305691 2411.495214 2365.714092 2301.823207 2217.074031 2111.867649 2021.017482 2174.466766 2962.891469 3925.055386 3305.979279 2049.471927 1226.581909 894.086419 746.112062 655.982044 584.549349 520.873604 462.064156 407.432571 356.883110 310.457595 268.193215 230.073640 196.014498 165.864789 139.416404 116.417395 96.586231 79.625317 65.232810 53.112261 42.980015 34.570473 27.639491 21.966217 17.353679 13.628428 10.639491 8.256862 6.369706 4.884416 3.722637 2.819328 2.120929 1.583648 1.171933 0.857186 0.617243 0.439898 -92.674408 -82.998146 -86.779979 -77.979641 -71.235615 -66.724065 -53.888663 -53.464901 -41.492911 -41.641571 -31.920543 -32.122296 -24.452541 -24.627307 -18.638530 -18.779781 -14.134166 -14.246254 -10.663265 -10.751452 -8.003388 -8.072318 -5.976215 -6.029765 -4.439693 -4.481046 -3.281409 -3.313156 -2.412990 -2.437218 -1.765410 -1.783793 -1.285105 -1.298973 -0.930771 -0.941172 -0.670761 -0.678517 -0.480975 -0.486726 -0.343176 -0.347417 -0.243647 -0.246757 -0.172135 -0.174402 -0.121017 -0.122662 -0.084667 -0.085853 -0.058949 -0.059799 -0.040846 -0.041453 -0.028167 -0.028598 -0.019332 -0.019636 -0.013206 -0.013419 -0.008978 -0.009128 -0.006076 -0.006180 -0.004093 -0.004165 -0.002745 -0.002794 -0.001832 -0.001866 -0.001217 -0.001240 -0.000805 -0.000821 -0.000530 -0.000541 -0.000348 -0.000355 -0.000227 -0.000232 -0.000148 -0.000151 -0.000095 -0.000098 -0.000062 -0.000063 -0.000039 -0.000040 -0.000025 -0.000026 -0.000016 -0.000016 -0.000010 -0.000010 -0.000006 -0.000007 -0.000004 -0.000004 -0.000003 -0.000003 -0.000002 -0.000002 -0.000001 -0.000001 -0.000001 -0.000001 -0.000000 -0.000000 -0.000000 -0.000000 -0.000000 -0.000000 -0.000000 -0.000000 -0.000000 -0.000000 -0.000000 -0.000000 -0.000000 -0.000000 -0.000000 -0.000000 -0.000000 -0.000000 -0.000000 -0.000000 -0.000000 -0.000000 -0.000000 -0.000000 -0.000000 -0.000000 0.000000 0.000000 0.000000 0.000000 0.000000 0.000000 0.000000 0.000000 0.000000 0.000000 0.000000 0.000000 0.000000 0.000000 0.000000 0.000000 0.000000 0.000000 0.000000 0.000000 0.000001 0.000001 0.000001 0.000001 0.000002 0.000002 0.000004 0.000004 0.000007 0.000008 0.000013 0.000013 0.000023 0.000023 0.000039 0.000040 0.000067 0.000069 0.000114 0.000117 0.000192 0.000196 0.000319 0.000326 0.000526 0.000536 0.000858 0.000874 0.001386 0.001412 0.002218 0.002257 0.003515 0.003575 0.005518 0.005608 0.008580 0.008715 0.013218 0.013417 0.020173 0.020464 0.030506 0.030926 0.045715 0.046307 0.067912 0.068684 0.100151 0.100796 0.147390 0.145578 0.222393 0.201298 0.296237 0.253653 0.329770 0.283002 17641.826192 18444.184929 18652.075802 15801.722863 17367.642357 15981.521814 15704.880220 15721.187578 13620.208646 16471.871922 10140.860252 17705.995198 17825.658612 18275.971241 18044.548793 6067.513615 16311.435573 14239.585085 9985.279638 11018.544001 13410.282159 17900.086648 21090.214951 17920.207987 21630.485221 19275.197552 18533.957986 11147.265167 15664.942473 9832.658195 5199.440594 11946.622008 18512.333864 21673.391002 19189.410186 20788.816482 23136.976075 18522.140618 19289.068273 15623.533739 11142.703883 20302.726453 14802.210794 12685.241915 23024.593749 18942.755263 22538.774859 21152.859210 20639.687995 16376.608472 18063.044680 17180.448946 10552.787688 14790.831778 12418.173565 23370.190461 22494.544118 20797.738060 23656.747075 18903.671436 17393.848335 21130.252788 18886.107152 14824.029081 9801.561853 18915.430292 19019.463590 21735.070746 22263.829972 22538.503082 17958.979976 18940.077849 20787.904304 20757.231884 20451.450267 23877.997231 18053.018680 22472.244779 23623.752004 18460.570963 22797.301069 24208.930780 15588.480612 19817.022750 17492.091264 17348.654078 20322.774117 12626.083710 20327.113687 23794.294700 20541.743109 18249.445274 20973.823910 20042.018565 21196.246182 22952.437282 18048.546086 15386.342166 16735.825593 22591.620356 22305.637392 21935.255072 21710.160288 17715.406123 22084.198759 18585.908706 20715.987543 15380.844322 10687.107502 10462.663068 24102.367698 20219.725185 21582.921702 16900.300366 22158.921388 18920.749120 19824.347763 14271.430613 11751.931086 9241.769809 8673.551039 22184.768870 22058.160952 22181.396357 21172.922915 18051.569992 14406.952041 12257.525328 14348.861081 13005.672144 13286.586602 16070.544735 23534.284290 20190.572147 16516.020971 18562.985451 18482.033643 15370.528531 15242.901063 15043.193369 12256.661937 14528.175877 8008.929681 19797.767586 21500.510627 17846.212856 21955.977334 21065.299818 18863.434342 17457.635647 15183.145148 16134.714974 5303.422873 3605.058549 21710.864189 17990.896388 19789.188647 19057.013242 18740.073358 16775.211337 15658.698502 12206.052204 6852.803537 6420.273924 5374.775796 21706.463564 20808.086857 19520.219598 14875.868279 15790.770323 10564.822481 11560.015483 9245.831833 3276.630280 1716.808564 3808.058036 20087.563563 20981.528816 15671.355242 18306.937618 16723.833871 17861.981945 8403.784561 15008.825216 1188.987345 1681.313740 1789.218103 21573.389311 18794.967351 18191.031795 16405.417779 7560.416849 4527.744271 10402.197464 3687.618303 5081.084152 898.575578 1752.818581 20736.034518 19502.922224 18411.937166 14728.057613 11273.765289 13919.525992 4504.445992 4360.401118 4567.952491 151.612825 2690.908956 20338.347663 19202.866059 16941.414185 17997.499708 10314.351660 12848.193106 6586.014326 2848.402077 1790.054345 2173.002290 2652.972110 21823.044407 19478.978619 18182.543552 13666.835213 11068.340117 7043.554498 3220.271807 2593.932167 1915.794637 1248.669713 1993.795448 20288.988753 21739.553013 19147.786077 15880.976920 11078.308071 4373.665909 3589.050820 734.353730 6511.943083 3055.578560 1981.096647 19738.608487 19239.140176 17239.947658 15688.763757 8067.296938 8993.739544 7840.526829 5272.223196 1560.860768 5838.118900 2935.656630 21762.290740 18095.722898 16216.231113 12376.374503 10435.100599 7709.895273 3412.105124 3332.559999 1933.733737 1796.389906 2046.803883 20683.686796 19148.452255 17258.971679 13493.758125 11744.073688 7935.122804 5865.496245 3909.714648 1731.775659 3577.883578 415.664887 20463.536067 20517.835070 15434.943251 13897.691780 12306.807178 7131.927121 7170.629567 6406.612601 4932.254959 947.729460 1107.081785 17618.605387 19149.485560 11737.394508 11514.492452 9329.963496 11292.584512 5507.962906 4600.794758 2579.575137 5002.343721 5239.080667 19194.891533 18933.925513 16029.606098 14984.630325 12608.401280 11832.799653 9894.526970 6624.261426 6206.424494 1260.954585 2452.156874 17393.139648 15624.811504 9281.411706 15530.657765 9736.606330 7884.401148 7194.005654 6649.451360 9264.668801 4650.303810 5155.565429 15736.282883 18487.177729 15795.748110 8472.759485 12114.440089 7509.032409 6139.060279 4968.620085 4587.434933 2935.785260 2529.102309 15015.038279 16344.832202 11325.136515 8067.816628 10043.278365 8639.638651 8823.408570 3328.873103 3032.374294 1048.854568 1173.965688 34870.506487 10326.207359 9648.195850 3815.745378 8157.413833 7333.580879 9748.987622 5848.369174 1335.010570 3060.556345 4795.168017 21730.569610 19196.293295 17836.302158 10232.102325 10327.538585 11204.032751 8891.078622 10003.095083 3576.670329 6447.558120 3158.161087 23405.813659 17496.246333 4684.134992 8529.020715 9517.180768 8032.270642 9593.734722 7183.724169 1551.712370 2525.947891 -1202.017782 15012.073095 11981.364778 6113.876097 6156.938342 12219.724383 10655.266422 9423.430528 7216.160734 4195.579058 6294.492968 1620.331150 20194.713074 16814.014578 14302.339709 6062.838633 6861.379285 10073.733409 9004.874845 7863.961585 1950.267985 3721.174787 4290.127181 1637.291377 31119.033821 13193.924961 11586.145434 10608.013839 7967.062372 9272.076308 3629.484816 6170.934369 3334.052759 1244.288129 14609.030989 19201.627289 16980.530532 9966.058842 12315.697977 10302.600293 5589.597305 7884.807873 4318.354974 2121.291208 1743.410642 22103.066411 8676.423581 1418.664215 14105.779347 12558.856400 10344.406981 4818.765018 2197.556615 4639.444486 316.728869 1060.940405 5540.423821 92601.601299 -18678.749103 11275.741711 10724.720505 8262.843978 6267.735472 4110.859398 5632.277957 1792.291925 1777.358385 155142.221632 220496.314007 6078.713102 8955.514296 10408.704464 9801.880573 7919.322632 6085.920085 3737.344149 4849.004198 845.185119 40393.794509 33117.729210 -5339.034133 14722.396817 15337.238916 11812.273787 4504.992662 8479.539133 6359.071980 4891.832056 1636.739716 -13538.691305 22562.273901 32066.435974 6752.364572 12833.862334 10500.027077 10629.809904 7020.383342 5148.313030 1703.282890 2787.246420 -8685.924888 26841.391307 10035.647310 12126.992524 11506.565262 9173.745106 8570.617246 7579.018838 8112.168078 2085.816125 437.758766 3287.560458 140.152005 8678.996962 5110.517393 11172.293278 13426.006403 7865.328662 5188.500446 4506.415907 1227.681402 4149.079285 75484.418678 9103.092350 12462.108534 10245.000745 13089.017264 11888.943637 11792.228824 5677.217042 7976.392739 4063.819828 3693.855815 -16074.058320 -11511.498077 11072.895300 9753.865445 13454.922444 11042.649010 12884.979000 6400.335612 2793.907367 1486.538312 1265.727521 -50618.290696 -39907.083274 -45798.824234 4749.039968 5440.335033 9500.363351 9753.779381 7541.333423 8577.211479 6635.216040 3052.863499 -50220.165685 -34563.162827 -49661.429942 -45852.848274 9759.852145 12125.468850 8574.589957 6889.214072 5611.659673 904.618731 131183.167069 -18442.100135 102943.378208 -39286.411337 17480.152814 10655.869544 9539.128875 8663.414639 4247.308128 5421.274000 593.090767 -176.036966 17097.663942 7681.284024 -51057.982706 9336.442708 11154.735276 11900.095526 11048.831288 6154.247334 7192.914498 5517.966842 3966.740516 131272.222392 -9656.117603 46594.097776 5716.461021 5434.613497 9316.275169 11096.530978 8378.381470 8078.691462 4213.808352 4410.920863 76365.102763 -26314.552815 53348.030449 565.152569 9145.593941 9555.462413 10501.229063 7140.249555 5239.907280 4119.978414 11170.173834 -17317.692666 -42006.977100 11118.331600 11153.600740 8216.413567 9593.278675 8317.241731 6255.675269 4893.977023 2086.097899 2294.027462 2848.706346 -7924.133117 25639.065248 9614.478892 7308.774605 7658.597073 8142.143714 10311.864788 9224.350468 5382.364415 4301.814801 23698.261449 39992.584513 6282.652302 -7155.898139 10002.416220 10587.812134 10598.000162 8534.794815 3421.045645 4829.626535 -1294.755754 23563.238081 15406.931029 5547.382472 -9488.247959 7368.041162 12410.462424 9486.914429 8521.086930 3721.761890 724.511524 2281.224362 26970.606532 14634.788652 1193.089221 11188.948950 15294.389711 9793.442539 6746.250104 7678.873909 8978.234829 3095.099343 860.482241 33018.503356 27044.997764 7192.294124 6640.319330 12158.092181 5859.807143 8818.877908 8219.651132 3410.256348 3121.547109 10190.403923 30345.963784 21165.702196 1049.976107 9647.556785 10601.668222 11163.064440 9826.491392 7540.589292 7248.693447 3617.784172 2462.957357 26513.708147 18085.888279 8397.288099 11007.481927 11762.828243 5227.670139 7278.183643 12434.072283 5392.856325 2444.820092 5419.367044 26717.909153 24783.638552 18013.187594 14257.839812 5339.735067 6903.997597 6380.651491 8693.011965 6349.625992 4718.454117 6457.440747 26022.048691 25251.390500 15944.810432 7737.229400 9061.604287 5839.378633 7557.567756 10426.361557 6021.457526 3751.204029 4944.142381 24170.130794 22488.157241 16422.641775 6300.237710 6444.691178 7891.007803 8494.390168 6659.515072 6000.203520 5860.361706 4853.576746 22962.512465 21521.833678 14758.766890 3067.864157 5677.268806 7227.338751 6402.711814 8784.165069 4500.408399 3890.787672 229502.943700 21768.105933 19476.522464 14009.830215 6585.315895 3812.985494 4581.826614 5284.883451 10136.750943 5200.503516 7390.204878 6390.746451 21474.245486 20236.340728 17111.268451 10672.743084 8989.778784 8567.026098 7801.580353 7887.711642 7295.878281 7694.016033 3527.862407 21546.512895 21420.064324 20700.614584 16206.467984 11944.917698 3461.574047 9591.607818 9012.349099 9099.794301 4891.889607 -4057.905072 21387.004704 21843.769671 22567.500083 19993.317056 4671.165832 3195.386992 4464.242784 10719.280646 8107.015686 6017.652377 6648.367412 20778.866348 20846.016860 19946.510228 12651.662107 -1135.265041 4556.537067 6410.934718 8049.091287 10109.900481 11193.206920 6064.799394 20039.907594 19578.678165 17551.630838 11632.352690 4044.260446 7362.808796 4986.484961 3063.627355 13656.991492 8714.810617 900.168228 19558.566327 19350.278541 18368.863444 15058.505700 9153.928491 7155.926508 4057.750711 7966.348519 9713.450006 8458.875536 8805.174056 19296.737516 19771.158255 20465.329185 21050.304735 17545.260455 203.038219 4781.864298 6162.448769 11878.731550 10732.927400 3537.342427 18970.973541 20031.998599 22041.594088 25153.200381 24105.135822 14707.852469 6205.992298 5479.733231 8217.707544 7282.596161 2590.059692 18370.290362 19653.819345 22136.607995 26049.132296 21442.497847 -1376.673731 3160.598180 -250.744102 7821.660687 11132.440504 5204.917727 17481.509731 18583.895895 20221.696978 21733.558703 18082.066720 5306.239900 7188.858820 4960.702339 6627.029169 12441.888271 6987.529078 16459.595727 17310.918940 18158.081652 17970.578692 14276.457052 6347.705510 4979.712683 10970.536468 7017.997397 9458.862408 3568.026766 15454.248858 16238.819599 17094.086519 17386.060283 15745.021939 11420.035378 7717.578217 5606.097770 6503.004776 8442.053308 8779.223300 14495.357523 15320.010718 16517.782579 18268.366165 20662.146028 20176.595196 13206.919831 6759.596545 5262.529655 11966.215411 5283.328629 13545.242354 14341.792566 15555.010927 17375.853477 19299.875609 13898.080815 -2506.449615 3308.852741 9386.435436 4389.811110 11047.990520 12593.029577 13267.417180 14168.490327 15034.171805 14594.159225 9674.413521 1737.447701 3526.149852 1690.077589 15553.305479 10043.598733 11669.433950 12219.918243 12859.167005 13245.621001 12696.232122 10059.788350 5705.560228 4055.342243 4225.166867 9670.499829 -1463.817989 10802.363914 11289.091595 11876.614381 12412.214499 12857.543689 14102.038638 17315.090558 10629.058764 15888.370841 7504.609585 9020.712205 9989.664137 10454.105356 11093.333943 11948.045966 13379.230259 16403.689902 18454.306287 1960.183277 4410.782789 6668.041932 -11064.288042 9211.833152 9647.879860 10292.922963 11251.756855 12938.856961 16314.159918 17030.168262 6214.113699 9714.968625 13705.337418 8757.147712 8456.103717 8835.246414 9396.549531 10190.323342 11282.161522 12381.111851 10147.443364 1627.337902 2018.034221 1006.899254 7930.204421 7725.865544 8029.650516 8468.392282 9057.055904 9784.360807 10609.684748 11365.974767 11365.835285 10037.691261 7871.908128 7326.070952 7034.342710 7263.172149 7586.844593 8017.616170 8589.134084 9516.909404 11608.026755 14205.619837 7734.600988 9571.104418 7652.196068 6394.712647 6560.554133 6790.310656 7087.479974 7454.989997 7963.027085 9240.533835 11840.250856 13047.778617 4722.561902 13924.418553 5814.765386 5933.450690 6093.224954 6281.636038 6438.756198 6416.963644 6095.746299 6434.081327 10986.910114 8231.807869 18844.082375 5296.128382 5383.078220 5498.334820 5624.839986 5690.670722 5522.370662 4999.106667 5123.307676 13095.496910 6305.018826 17687.320695 4835.596122 4903.066887 4995.009537 5102.567878 5181.889974 5133.229518 4932.120294 5695.452492 12003.992840 14770.065459 18322.902175 4427.170305 4482.702430 4563.176016 4671.966481 4802.573808 4948.538613 5272.186409 6563.712695 11633.235510 13757.948234 15939.047738 4064.192466 4110.684164 4181.895069 4289.151198 4448.982620 4705.564974 5243.420310 6469.604797 7983.476286 14888.330575 13798.624361 3741.103177 3778.311464 3836.599654 3928.088262 4072.241160 4306.534678 4714.284074 5310.626031 4999.215914 2749.911248 5641.106119 3454.448716 3481.116724 3522.044437 3585.006074 3679.370757 3805.508446 3900.729990 3705.648325 2483.966048 1375.709316 2402.798721 3202.964301 3218.530378 3240.390130 3270.723950 3307.590394 3326.025259 3225.185847 2829.426651 2410.199990 3046.752134 3894.215922 2986.937660 2992.184744 2996.661367 2998.588067 2990.543565 2946.231986 2802.158741 2509.615412 2352.026140 2013.512089 3259.981112 2807.352347 2804.131702 2794.954398 2776.420893 2741.156395 2672.975643 2550.566455 2427.297012 3285.107724 4175.798233 1616.117564 2665.280491 2655.886483 2637.083491 2605.484392 2555.870279 2481.772267 2394.511631 2557.799261 5970.145066 28064.619710 67193.788102 2561.858678 2548.387764 2523.110046 2483.592763 2426.288636 2349.952291 2283.736329 2537.545404 5168.069521 22662.204368 88667.118234 4616.902907 16067.754517 13745.819436 12234.215530 15981.485310 16598.080330 13684.326100 11842.041587 9696.063344 5208.767884 9587.014967 4182.826650 -2841.089725 -9592.691799 13256.408456 6252.369764 11753.723398 8412.909110 9060.380776 13631.754850 9597.105948 8817.320392 8159.337706 5149.940120 2451.450206 5215.356746 2843.792185 -533.072788 7540.985336 15456.909692 12951.525183 6581.495809 10382.319599 14217.264689 7346.785115 7893.330035 10924.490380 5276.304222 3737.288395 6003.410408 2578.537975 2447.323976 17316.879983 8423.013930 10919.198566 15686.872487 12671.732363 14064.391303 15143.694907 7856.150558 4429.037280 5659.602368 10194.092204 6714.996148 4454.454103 4076.290067 15924.561713 16916.428741 15442.159702 7670.203348 8205.822127 16312.053651 5715.116582 6304.527366 9229.210028 3261.184214 8228.176493 5979.240989 5867.856135 11446.066646 11420.215929 10136.356400 11043.362535 18054.364188 17104.242404 10470.033541 14401.132222 10453.635667 8969.160273 13122.767417 11515.841354 5394.898620 11550.374559 6615.415726 20068.315962 9322.835584 14592.021526 14743.613855 6894.316808 6538.040359 13040.221454 10695.078772 6735.355816 6601.150940 9149.195864 5411.755800 2870.455221 4615.714341 15125.931736 16956.886758 14772.685034 13412.867365 10818.808821 13075.430508 11612.058959 10190.223090 6877.567805 9004.714795 6921.143667 7395.811871 5344.195531 6662.168358 16504.907891 15507.195245 4728.746503 8239.306747 11371.832447 10043.311212 11679.093491 4645.149388 7660.106737 14140.607870 9391.244449 6562.346335 1452.803756 1358.238572 7799.288923 11230.561842 9508.114355 8496.618335 13903.215004 7733.530740 11066.772065 5162.784742 8661.478519 5773.057983 10495.344650 -753.315085 6864.210178 992.442484 8080.269174 8446.035734 12098.931050 5869.670872 5072.777580 8080.561458 11201.190947 6768.767405 6737.183141 3487.059599 7201.482708 9172.511147 4709.780364 1066.616606 13593.512428 6581.842960 9061.877624 13246.101830 4596.963150 6187.076644 4842.603624 7163.871588 7018.265552 5692.318200 9057.630407 7391.659841 5160.385955 1876.196029 5526.702043 5507.316519 2314.709449 9582.066211 4278.241137 758.552097 11603.133066 8818.415467 10073.859894 11693.367897 4306.299016 2296.447736 5815.809625 4044.641749 2159.151178 2590.207386 159.961947 2719.954876 3863.408331 3280.976535 1754.778999 1178.989371 1117.298150 1703.792240 3179.327477 3243.842992 4720.844909 6976.905774 2681.442719 3642.908610 1763.620078 705.943915 1900.683696 769.455606 1184.912337 980.589192 1900.358311 2683.941821 2398.089078 3491.389172 3774.723043 3992.194976
</DataArray>
<DataArray type="Float64" Name="Velocity" NumberOfComponents="3" format="ascii">