<VTKFile type="PolyData">
<PolyData>
<Piece NumberOfPoints="1945" NumberOfVerts="1945" NumberOfLines="0" NumberOfStrips="0" NumberOfPolys="0">
<PointData>
<DataArray type="Float64" Name="Pressure" format="ascii">
 75441.847492 65670.779842 77688.537400 63464.741615 74436.201351 63716.680494 65407.772043 55428.513769 67276.865742 59622.104706 59923.944285 54420.942137 55548.283664 52401.162298 53949.889656 52941.425889 51514.046916 50884.472063 50172.401019 50047.457771 48510.217753 48737.785250 46823.421692 47426.081595 44946.227832 45593.432641 43037.060744 43977.699239 41042.717973 41900.811927 39052.990996 39853.445991 37030.297872 37731.784708 35017.200428 35551.480234 33049.682782 33450.899106 31115.862265 31371.098395 29234.631469 29345.847317 27403.249337 27349.207175 25629.409704 25350.225488 23927.338782 23325.365900 22317.034262 21279.204953 20816.988316 19245.283624 19440.902066 17256.297087 18199.639873 15360.384324 17097.674310 13586.323397 16131.020517 11995.494739 15291.766278 10603.063473 14568.343175 9414.546420 13946.265424 8414.794072 13413.226172 7584.722072 12957.318083 6904.089054 12565.628094 6345.190650 12226.018615 5880.574531 11927.148948 5486.960418 11660.085552 5138.246012 11414.326685 4831.185478 11180.015214 4554.501575 10955.469491 4305.361302 10734.994608 4097.293740 10517.548955 3898.064140 10317.362697 3756.978777 10154.543924 3674.566546 10059.889158 3767.764110 10033.181283 3523.780032 10738.497603 3624.541983 13520.450689 4571.633847 19589.088377 13651.564266 22116.009868 16878.508117 18754.077449 12499.170880 17803.200318 11732.321013 18714.853026 13997.929365 20342.284014 18342.624761 20709.057422 20420.641900 19194.209188 17433.597017 17542.929011 15650.955030 16407.850138 15205.708587 15582.331552 15300.838540 14541.325610 14742.456948 13113.036884 13214.118995 11667.005540 11730.965720 10478.441605 10756.775835 9508.164691 10052.239383 8584.881135 9246.396515 7641.156564 8250.902820 6752.152616 7310.932854 5990.052975 6566.211701 5345.852898 5964.805709 4766.112534 5393.554761 4218.640641 4808.204119 3711.960409 4254.403122 3264.132059 3776.682621 2875.288382 3370.041643 2530.424386 3002.242765 2216.806917 2653.934959 1932.511096 2330.965051 1680.576010 2045.072472 1460.660846 1796.694682 1267.782018 1576.551999 1096.469112 1376.412137 943.928411 1194.609568 809.416781 1032.785721 692.049142 890.911040 589.898376 766.327593 500.710378 655.953229 422.817937 558.097336 355.257762 472.291624 297.301049 398.178380 248.060342 334.873010 206.453860 281.066802 171.365998 235.370286 141.774554 196.502902 116.782969 163.320619 95.620737 134.835462 77.663145 110.287143 62.454653 89.197086 49.695656 71.329637 39.182273 56.573063 30.725108 44.796531 24.180633 35.474869 19.767264 28.763164 18.151110 26.373924 60332.528492 61371.946517 56204.101509 51436.921202 47459.131270 45115.930686 43615.018334 41925.784602 40002.026864 37821.831576 35424.629090 32905.781034 30366.383807 27881.719320 25550.120025 23332.873091 21121.945809 18885.437668 16510.862992 13677.197565 10175.789177 6721.921644 1938.186848 -3543.777890 -4649.236169 -4269.623076 -3483.300133 -2614.974966 -1824.207356 -1196.767727 -745.085962 -443.249314 -253.288468 -139.596304 -74.441232 -38.508157 -19.364875 -9.483793 -4.530382 -2.113860 -0.964607 -0.430977 -0.188731 -0.081086 -0.034210 -0.014185 -0.005785 -0.002322 -0.000918 -0.000356 -0.000135 54608.556382 55653.192965 51121.345365 48928.091194 44678.636542 42661.129675 42258.243039 41019.757055 39425.588847 37171.092234 34306.961024 31108.544051 27837.518315 24563.745149 20739.806873 16841.987860 13127.601952 9947.581912 7875.719943 6089.675373 3391.543597 2438.053324 616.092025 -4966.746600 -4842.893544 -4023.507617 -3421.688376 -2616.222075 -1851.734883 -1230.897136 -775.953990 -467.201316 -270.123610 -150.597781 -81.225909 -42.494539 -21.610955 -10.703105 -5.170419 -2.439644 -1.125784 -0.508635 -0.225233 -0.097849 -0.041741 -0.017499 -0.007215 -0.002928 -0.001170 -0.000457 -0.000160 50.046807 89.636095 156.705828 259.916513 406.832003 599.426647 828.628692 1068.981247 1269.365593 1295.866304 981.422421 760.813731 664.297030 490.568578 336.209425 218.417453 135.190459 80.045507 45.488860 24.882976 13.135383 6.707017 3.319483 1.595473 0.745994 0.339852 0.151069 0.065609 0.027872 0.011595 0.004728 0.001892 0.000743 0.000287 0.000109 0.000041 0.000015 0.000005 0.000002 0.000001 0.000000 0.000000 0.000000 0.000000 0.000000 0.000000 0.000000 0.000000 0.000000 0.000000 0.000000 47.701498 86.274759 150.667605 249.724571 390.374848 573.339286 786.821357 998.876788 1151.191807 1170.375256 1034.515521 863.038137 677.677709 495.771137 342.945398 225.157067 140.926960 84.413178 48.545323 26.880339 14.366945 7.428809 3.723824 1.812939 0.858693 0.396301 0.178468 0.078524 0.033797 0.014244 0.005885 0.002386 0.000950 0.000371 0.000143 0.000054 0.000020 0.000007 0.000003 0.000001 0.000000 0.000000 0.000000 0.000000 0.000000 0.000000 0.000000 0.000000 0.000000 0.000000 0.000000 -0.000057 -0.000026 -0.000055 -0.000027 -0.000031 -0.000018 -0.000010 -0.000009 -0.000004 -0.000004 -0.000002 -0.000002 -0.000001 -0.000001 -0.000000 -0.000000 -0.000000 -0.000000 -0.000000 -0.000000 -0.000000 -0.000000 -0.000000 -0.000000 -0.000000 -0.000000 -0.000000 -0.000000 -0.000000 -0.000000 -0.000000 -0.000000 -0.000000 -0.000000 -0.000000 -0.000000 -0.000000 -0.000000 -0.000000 -0.000000 -0.000000 -0.000000 -0.000000 -0.000000 -0.000000 -0.000000 -0.000000 -0.000000 -0.000000 -0.000000 -0.000000 -0.000000 -0.000000 -0.000000 -0.000000 -0.000000 -0.000000 -0.000000 -0.000000 -0.000000 -0.000000 -0.000000 -0.000000 -0.000000 -0.000000 -0.000000 -0.000000 -0.000000 -0.000000 -0.000000 -0.000000 -0.000000 -0.000000 -0.000000 -0.000000 -0.000000 -0.000000 -0.000000 -0.000000 -0.000000 -0.000000 -0.000000 -0.000000 -0.000000 -0.000000 -0.000000 -0.000000 -0.000000 -0.000000 -0.000000 -0.000000 -0.000000 -0.000000 -0.000000 -0.000000 -0.000000 -0.000000 -0.000000 -0.000000 -0.000000 -0.000000 -0.000000 -0.000000 -0.000000 -0.000000 -0.000000 -0.000000 -0.000000 -0.000000 -0.000000 -0.000000 -0.000000 -0.000000 -0.000000 -0.000000 -0.000000 -0.000000 -0.000000 -0.000000 -0.000000 -0.000000 -0.000000 -0.000000 -0.000000 -0.000000 -0.000000 -0.000000 -0.000000 -0.000000 -0.000000 -0.000000 -0.000000 -0.000000 -0.000000 -0.000000 -0.000000 -0.000000 -0.000000 -0.000000 -0.000000 -0.000000 -0.000000 -0.000000 -0.000000 -0.000000 -0.000000 -0.000000 -0.000000 -0.000000 -0.000000 -0.000000 -0.000000 -0.000000 -0.000000 -0.000000 -0.000000 -0.000000 -0.000000 -0.000000 -0.000000 -0.000000 -0.000000 -0.000000 -0.000000 -0.000000 -0.000000 -0.000000 -0.000000 -0.000000 -0.000000 -0.000000 -0.000000 -0.000000 -0.000000 -0.000000 -0.000000 -0.000000 -0.000000 -0.000000 -0.000000 -0.000000 -0.000000 -0.000000 -0.000000 -0.000000 -0.000000 -0.000000 -0.000000 -0.000000 -0.000000 -0.000000 -0.000000 -0.000000 -0.000000 -0.000000 -0.000000 -0.000000 -0.000000 -0.000000 -0.000000 -0.000000 -0.000000 -0.000000 -0.000000 -0.000000 -0.000000 -0.000000 0.000000 -0.000000 0.000000 63686.496888 53951.885424 51033.312941 49716.829144 47211.983788 46489.110227 45975.197354 45041.583966 43484.146211 41940.111713 39817.978800 56103.978825 58849.428825 57141.477233 55911.232578 50748.376878 50500.430048 47586.330933 46517.523202 44889.993809 43317.548164 41555.022679 56859.903996 56174.002186 55200.581355 52408.776364 48933.104091 48340.592860 46715.947676 45373.978386 43471.161152 41545.593936 39975.415208 52673.739170 57735.291385 55492.434467 53421.803059 48844.171478 49826.263248 46446.389798 45198.312728 43075.844191 41319.881741 39505.434308 52305.324179 53887.573084 52763.939861 49808.003066 49925.589506 47127.295571 44529.035585 44189.264178 41237.489677 40344.839295 38351.466346 51738.137485 53469.445265 52564.333564 50380.237992 47887.537052 46500.232148 45429.482936 42581.127176 40468.127887 38890.434590 36596.934932 51355.804724 51911.277322 50922.047512 48600.631512 46998.645364 44987.613199 41738.717185 41141.503991 39788.075525 38187.886229 36762.606778 49756.959606 50262.763682 49810.234069 47097.792302 45053.409391 43482.653106 42235.306837 40639.374023 37004.101912 34999.838280 33276.526575 48569.140519 48730.264040 47802.561600 44838.594992 43555.670724 42167.058866 39110.118700 36988.216357 35844.089455 35804.002985 34417.148273 46921.288223 47002.484021 46129.050137 43514.513021 41881.462264 39137.658604 36946.731835 37314.320691 35272.913269 31619.790697 28457.374398 44921.899162 44366.708233 43563.737114 41135.605127 39020.371048 37681.208728 36890.585356 33960.663301 29366.934888 30205.751305 32402.166559 43214.051651 42790.302835 42113.331091 38743.525339 36970.463137 36235.492973 31998.990877 30364.327230 33169.717393 32317.349062 24157.469425 40736.685960 40118.932430 39160.074255 35971.205121 35817.942573 32634.914676 29761.714302 34115.848436 27313.295913 20287.266300 30688.650498 38673.388329 38168.573843 36712.560335 34287.089917 33391.470379 28419.766758 31418.061039 27851.014256 21288.920998 34983.576821 21835.574352 36487.937668 35801.299761 34056.567917 32383.457749 29802.294538 27484.946760 30778.056018 19599.918770 28956.380590 23151.301893 18553.558822 34236.371467 33357.234983 31666.775281 30206.638228 26715.221909 27722.000626 24870.816644 20106.593114 29503.705972 8758.599648 33251.607759 32059.741281 31128.914356 29542.641754 27632.381707 24412.592115 26643.900761 18728.795963 26978.618147 21373.624157 13943.313239 -19454.474461 29826.711108 28832.183093 27341.111491 24972.190822 22594.434382 23887.078092 15918.127944 29399.851742 8680.388158 27552.175992 16068.799709 27645.560500 26621.586993 25246.633011 22542.444537 20780.020420 20304.114581 15601.946496 22040.789984 9528.450278 24606.849964 16642.454014 25512.766112 24454.506418 23196.395702 20277.250456 18877.308946 16914.315119 15197.082465 14200.507177 13500.607764 12091.325676 17000.995140 23420.511295 22327.917655 21170.687365 18185.772863 16969.619971 14325.006350 13416.301205 10672.569673 12441.226762 5081.309556 15031.547785 21344.706901 20259.990655 19188.925376 16255.437296 15048.673908 12477.278591 11017.738959 8570.466322 9598.989716 2835.842763 9289.147613 19282.955956 18235.953291 17221.816224 14424.285332 13163.254647 10901.184892 9126.408435 7030.666212 6774.970094 2314.582703 5061.028618 17268.549527 16279.406301 15268.748930 12662.652932 11371.361938 9361.487550 7535.586114 5870.582167 4894.685825 1798.948956 2768.134899 15315.175434 14406.595042 13345.396968 10948.316551 9655.862608 7880.369464 6084.294650 4744.930263 3630.597972 1336.156986 1507.032962 13452.979962 12626.034990 11485.513014 9292.576591 7997.794995 6449.026393 4754.896394 3648.539282 2616.092452 898.308565 821.217284 11725.470933 10972.774106 9732.642484 7728.941989 6423.909115 5072.449035 3508.926087 2608.336822 1751.094786 474.123586 379.322570 10165.490259 9478.395507 8127.042954 6291.950440 4973.942947 3793.010539 2359.840529 1640.215977 992.757154 78.379549 52.616497 8784.510290 8148.140985 6694.293369 5012.385695 3682.066212 2648.799210 1339.040695 778.102575 336.454032 -275.241255 -203.380753 7596.089777 6988.310681 5442.875739 3899.671083 2560.571722 1659.153106 462.288875 40.885998 -213.588373 -575.688018 -404.949272 6589.590821 5993.395607 4369.891056 2951.762577 1605.796588 822.008636 -270.843841 -572.131297 -663.919593 -822.129992 -561.792593 5741.890733 5147.351741 3460.409106 2147.573169 804.255295 121.362423 -876.801242 -1074.554047 -1029.874402 -1022.026082 -683.389156 5032.239478 4434.259597 2706.537718 1470.203215 134.344676 -461.669927 -1379.634494 -1487.685108 -1331.127172 -1187.503633 -780.100457 4433.253903 3825.131893 2082.006918 908.618295 -420.442671 -941.512334 -1796.986079 -1829.723907 -1584.116927 -1329.836830 -861.799597 3926.585510 3306.192348 1552.086019 428.320443 -889.090844 -1342.077451 -2147.417114 -2115.194927 -1797.619597 -1452.937709 -933.904109 3507.335012 2890.428067 1128.227411 35.544769 -1272.723651 -1675.382431 -2446.024812 -2360.015569 -1981.600584 -1558.961331 -997.343140 3119.506852 2503.054658 741.952083 -313.127273 -1587.535588 -1942.459842 -2682.649270 -2558.428495 -2136.710462 -1651.221876 -1055.747000 2793.934926 2185.353324 402.064493 -640.574320 -1894.484107 -2203.083210 -2892.878646 -2718.269095 -2252.682153 -1719.220198 -1108.045270 2506.815054 1919.965479 150.595784 -848.001921 -2095.879821 -2401.162428 -3078.621549 -2870.975385 -2351.795157 -1760.439571 -1141.096032 2244.170476 1636.659148 -160.471453 -1115.025251 -2305.072910 -2546.942166 -3180.681363 -2970.255966 -2435.957512 -1790.816088 -1159.306597 2082.540996 1525.642236 -237.383069 -1193.124008 -2442.042119 -2704.239383 -3283.151612 -3018.287902 -2468.154319 -1797.641780 -1178.199180 1906.140326 1318.144034 -446.204092 -1306.734564 -2465.731090 -2698.740302 -3327.545118 -3049.136140 -2461.929522 -1773.168446 -1177.649339 1879.562627 1338.055807 -449.071856 -1319.040025 -2571.432412 -2720.419184 -3285.601662 -3040.927293 -2426.325630 -1722.451492 -1143.275753 1772.755766 1276.433332 -505.130853 -1236.744153 -2383.706897 -2657.174108 -3163.348648 -2980.809237 -2368.131359 -1623.011761 -1103.336374 1922.831358 1249.392807 -477.583192 -1281.778074 -2343.370488 -2535.071835 -3023.772266 -2790.754537 -2264.521245 -1498.805906 -1056.028313 1838.814162 1447.029196 -416.424690 -907.351754 -2147.028117 -2267.829422 -2890.932495 -2573.864586 -2066.787861 -1392.715040 -959.878736 2126.211026 2323.882036 -238.464668 -772.621153 -1911.149573 -1998.225329 -2545.738881 -2341.862529 -1820.505696 -1262.317482 -823.141221 570.079727 1997.702501 224.601441 -269.492095 -1584.785538 -1597.761169 -2202.086692 -2026.975135 -1575.171948 -1063.023824 -691.945432 4677.047080 2292.473241 223.487626 351.838684 -1314.913704 -1131.710011 -1691.452120 -1658.382733 -1273.245099 -862.365099 -563.704999 -2911.316958 2420.390394 1271.742201 194.466312 -200.918579 -1085.606720 -1040.344213 -1345.111897 -862.898686 -684.144395 -417.099186 -10.219365 390.500942 3868.714466 -33.103894 884.060243 -696.045042 -305.891280 -1038.623908 -460.564074 -472.326472 -270.306043 3464.651118 2575.056426 4035.414386 920.278334 1274.207094 -72.101644 267.233651 -546.563351 -68.641923 -236.316438 -149.934595 5131.068465 1546.694108 3418.362540 2211.064068 1851.649033 763.941576 859.735530 29.033258 297.818942 13.716260 -55.946144 13734.541053 7019.724286 4245.560318 2843.517004 2834.960306 1379.059033 1397.050268 759.615912 561.746893 335.980365 24.199298 16666.720061 -1757.690941 4436.591002 3788.492153 3252.973507 2806.678189 1721.132454 1473.160507 759.238959 697.008822 117.532752 12470.446879 3008.961669 2814.712247 6273.324978 3519.772776 3940.514023 2260.901298 2138.981245 1061.167006 970.285859 233.728704 11406.958186 6895.195322 6066.030876 7131.777406 4852.798077 4496.861864 2943.026008 2631.759605 1466.794212 1208.590250 346.948870 12330.370502 8825.272203 6978.587075 7640.132803 5900.812104 5174.845564 3750.314794 3199.098485 1895.037568 1409.008295 479.361478 15374.786318 16665.983606 12230.203210 8099.558619 6775.986656 6363.182363 4235.038084 3661.533289 2486.744653 1488.733680 678.073816 16195.322505 18181.697647 3122.165498 7173.018487 7160.661159 7295.771245 5460.866003 3962.889743 3098.660036 1513.056180 896.260352 12662.355194 12534.768028 7806.020573 6497.718269 8818.281044 7959.485868 6280.620733 4447.042097 3603.818424 1658.446649 1071.133164 11252.594905 11209.576604 11521.672260 10306.036977 10619.320510 8987.270821 6646.230150 5119.013495 3895.040401 1824.561944 1266.394619 11020.006139 11916.779766 14918.978660 13220.589745 11105.165032 9037.361863 7249.192470 5719.329249 4285.955264 1987.604391 1444.600691 11187.899521 14393.414238 22968.615955 16987.822590 10836.780766 9671.052970 8268.982965 5797.928574 4627.125477 2336.536204 1473.140470 10660.714116 14722.050466 22597.167221 8496.179592 7528.135942 9835.082413 9300.942674 6426.426854 4860.667998 2708.239795 1412.222165 9311.773359 10952.211502 14122.079590 9733.335496 7848.546958 10723.556998 9969.742421 6714.692934 5170.927077 2912.311177 1422.857057 8251.782992 9464.104137 12120.179378 13097.968415 10782.037671 12354.050245 10540.659025 6917.702253 5545.015047 2986.798382 1424.121395 7642.170210 9337.062581 13204.599137 19485.112681 15011.752277 11243.968663 9779.049918 7463.824025 5594.568869 3310.899073 1347.533696 7237.633739 9532.959530 15308.267710 28611.762688 18135.664580 11261.346353 9962.888506 8083.888958 5186.652395 3558.912229 1371.825537 6710.376787 9021.920237 14852.451379 25081.283908 9264.281200 6332.065389 9864.608563 8588.726865 5323.764880 3553.978068 1484.508004 5992.545729 7742.753169 10498.479355 13651.866043 7523.520631 6727.757890 10792.366408 8255.084703 5148.987692 3580.626836 1481.534252 5316.471304 6787.421906 8816.277766 11303.935075 10389.501050 9179.971269 11563.298580 8179.327236 5094.962953 3583.317874 1434.260559 4801.540936 6306.515990 8745.219508 12926.669855 16659.790301 11688.065830 8981.082600 7820.852636 5386.815109 2932.609572 1732.851701 4396.908147 6015.425826 8944.572351 15343.743839 27382.198226 15323.425833 9481.166265 7998.296385 5614.309437 2141.330223 2030.401564 3999.557804 5585.051744 8359.239749 14529.617441 23155.407212 6463.227919 4734.870886 7402.417591 5684.173518 2379.596562 1907.859467 3573.130131 4960.497171 7017.861927 9816.638252 11555.587866 5148.583201 5028.543684 8583.546576 4708.907777 2464.882022 1792.398756 3163.430275 4375.193500 6050.219386 8019.792412 9260.015491 7561.575722 8002.741663 8596.828232 4236.721302 2371.245153 1661.316341 2812.913605 3944.907835 5589.399718 7919.959703 10650.953788 10974.074434 7512.466527 6364.765369 4755.556406 2583.245220 1204.788082 2517.521216 3615.262254 5316.440352 8105.740008 13210.578083 20867.618818 10736.088381 6829.622951 4724.445199 2796.411776 949.858869 2248.388617 3285.845425 4901.026224 7497.911711 12630.573808 18509.613830 3768.726386 3913.336434 4558.376456 2863.553945 1284.788266 1988.500036 2922.629401 4297.123195 6158.020078 8264.332806 8998.564114 3994.131105 4019.115648 5788.207880 2250.168231 1796.284542 1743.487226 2568.940768 3731.703334 5181.861712 6546.485521 7079.712475 6443.114629 7462.906132 5876.913246 1693.229376 1868.961394 1524.475177 2264.854066 3312.758610 4678.562707 6259.108846 7677.619644 7782.488496 6568.496702 4459.890120 2490.017058 1536.587755 1333.167234 2008.562871 2991.904880 4368.517532 6295.653920 9326.556472 12976.517033 8253.071444 4829.329733 2412.565459 1419.127162 1163.026424 1776.525294 2683.282432 3977.212726 5833.708728 9312.283165 13337.878875 4645.720562 3122.422369 2477.361830 1660.465142 1007.901380 1554.036143 2354.203550 3446.741852 4798.478886 6286.870764 7099.404455 4170.875151 3522.701231 2739.402417 1751.852305 866.564622 1344.287572 2033.602328 2935.584900 3966.762860 4920.047105 5723.178339 6087.242755 5398.239146 3156.218210 1151.273477 740.639789 1156.104756 1752.201534 2525.677886 3424.615153 4374.848268 5501.082261 6585.302356 5354.599362 2603.633766 1411.210561 631.056687 993.125421 1515.259239 2201.346278 3030.553752 3989.512302 5290.749225 6830.947530 5877.472238 2846.674257 1319.412417 536.927034 853.477246 1314.475864 1929.296148 2689.680472 3582.793835 4721.313736 6104.160969 5797.436554 2978.619906 1086.259705 456.344414 733.557820 1141.711170 1692.499086 2379.502230 3172.934417 4029.553560 4802.686305 4630.994670 2706.219526 1372.666894 387.278549 630.129952 992.068839 1486.737692 2111.192323 2839.692427 3624.932889 4491.513505 4861.504517 3015.721114 1393.395624 327.841225 540.270740 861.248748 1307.097530 1882.079243 2577.002571 3379.514651 4313.074806 4606.750537 2734.565047 1083.611102 276.256516 460.988180 743.870759 1143.227019 1669.984823 2333.366408 3182.374099 4422.723535 5727.513997 3068.562368 850.398029 230.977308 389.642957 635.002622 984.877076 1450.880402 2044.647827 2823.904988 4234.137574 5726.248467 2872.497274 824.740373 190.959269 324.814966 532.808957 829.880023 1222.465643 1704.162782 2252.161662 2839.485836 2624.622864 295.109807 1041.633181 155.800045 266.600324 439.091150 685.035002 1006.568800 1388.058609 1790.686805 2139.249586 2140.906486 1366.974509 1269.526031 125.574488 215.990128 357.136666 558.867171 823.137400 1138.601886 1485.656334 1854.180890 2132.158164 1701.492854 1094.112993 100.513551 173.979109 289.375945 455.877170 677.504704 950.207068 1268.191365 1643.759981 2035.151408 2039.701955 1489.089412 80.798148 141.150067 236.742330 376.592659 566.566037 807.077914 1096.387223 1446.607475 1908.065347 2403.353581 2685.773307 66.716937 117.876841 199.365753 320.219251 486.882382 700.635683 956.525887 1245.979275 1573.680730 1886.584831 1643.829934 37210.141443 34626.451638 32271.778362 29886.746136 27616.183235 24963.594315 21563.835959 17891.205325 14060.029222 9547.013113 6773.003366 2720.784020 1913.622299 -1514.474223 39407.752592 36906.448909 33940.139404 31105.351836 28287.680306 25502.213191 22502.093969 19345.545906 16583.912164 12917.550272 10963.608275 6405.756878 1769.439028 1546.922209 37859.892920 35700.627971 33097.869737 30616.682016 27770.944226 24559.260571 21098.109517 17294.619076 14204.276172 10620.457733 7990.172692 7798.816353 3334.043746 985.799982 37007.108479 34856.577497 32078.173781 29768.848760 27479.796728 25210.670364 22878.092497 19847.278931 16653.010324 14229.062428 9896.975567 6858.727585 4268.025176 1279.252436 36522.759920 34675.136740 31970.055004 29521.361682 26781.962402 23950.193357 21126.928990 18449.110813 15184.562398 12977.869672 11283.061610 8540.138194 4733.054307 1845.631796 34840.321937 32817.060654 30548.827533 28736.300313 26784.152928 24743.281132 22132.519316 19382.931950 16715.216389 13751.140504 10793.600696 8441.478838 5158.777666 2007.570551 34646.860257 32360.329929 29913.054446 27728.817976 25500.124139 23362.464072 21114.467701 18479.503058 16045.755387 14224.949261 11824.883352 8947.790122 5362.458057 2311.375759 31486.737222 30235.112694 28393.683543 26706.831514 24947.075892 22866.388546 20594.451238 18165.273879 15588.287324 13423.539707 11314.611759 8940.726857 5570.029138 2370.322565 31904.717809 29283.251709 26821.102538 25069.691123 23374.375283 21412.745657 19276.310264 17093.068191 15057.740040 13283.926061 11182.366862 8700.274480 5389.366537 2337.203506 27072.344487 26940.449373 25785.468402 24099.003032 22249.883276 20182.974056 17991.777710 15781.617802 13787.208098 12274.782090 10615.940017 8442.195275 5288.727069 2284.597970 29961.438257 25125.147717 22008.575550 20972.011763 19971.509479 18536.047078 16611.362824 14680.366035 12915.950620 11641.256127 9975.890693 7954.871534 4975.629010 2110.746806 20687.923230 25329.329831 26001.653050 22404.680087 18806.501991 16103.965728 13802.517021 12311.312817 10999.741357 10040.192503 8639.870663 7090.481513 4458.503114 1895.171780 27943.681922 18477.643574 11986.520709 14133.754836 17931.510431 17718.025134 14751.637193 11931.937950 9990.123932 8728.829152 7557.560060 6469.404051 3927.359061 1586.764281 17122.513263 29519.995952 27629.830786 22288.098128 13377.615252 6795.044561 5293.047225 5857.071400 5664.115960 5081.408278 4647.669460 3898.149828 1934.768703 1214.988346 25673.999245 17404.259346 18159.646903 25108.281552 26711.608444 25551.450959 18869.036930 11117.982840 6087.083104 3776.766884 2948.597022 2164.000228 1490.363291 1287.890240
</DataArray>
<DataArray type="Float64" Name="Velocity" NumberOfComponents="3" format="ascii">