<VTKFile type="PolyData">
<PolyData>
<Piece NumberOfPoints="1945" NumberOfVerts="1945" NumberOfLines="0" NumberOfStrips="0" NumberOfPolys="0">
<PointData>
<DataArray type="Float64" Name="Pressure" format="ascii">
 6202.278016 6227.940562 4718.707965 8687.555017 5555.201039 12399.446001 9088.395592 15426.148045 11707.300849 18545.381472 14736.326781 21219.768780 14679.137450 17243.375394 15425.055626 20114.600190 14515.121030 14976.810919 17274.551295 18846.887525 17873.969695 19716.032764 18934.078276 20377.157573 18148.788174 18933.803362 17738.845001 19950.444217 17859.612163 21492.413641 18426.924011 17710.098146 22441.776854 24666.792142 21157.110955 21396.252200 20992.910654 18183.748399 18757.587353 15069.154968 25408.235295 23666.802187 22013.980743 20263.903936 20249.273059 15993.876287 23167.800070 18887.030383 22233.605961 19965.060522 23708.683441 17783.668288 25622.800871 20130.366744 26356.868684 19812.796241 29714.899828 25586.423624 26644.177428 21390.361595 27721.907033 25793.737562 26989.949708 24853.444128 26595.095852 24218.784182 26091.669340 21474.439511 27338.118570 24952.576995 26201.611716 23307.769427 27265.564101 24972.040877 27384.870399 23673.896637 27972.518165 21742.835349 28738.860405 22364.082392 32247.493016 26606.358862 28203.326323 21483.980314 25943.908397 20674.640653 23252.707195 18541.078228 23062.065431 22178.495665 20121.433575 20148.768782 20184.779800 19406.628544 23536.970093 20453.463476 27251.310490 22622.743463 33091.427870 26696.318038 42021.009378 41931.894913 44647.920166 51352.106552 33969.041142 28234.014224 26926.514409 17178.832094 27984.386805 23888.378620 29286.544163 29152.313955 28315.217542 28158.905205 25910.958201 23296.868475 24437.816986 21380.521185 24100.798749 22434.890893 23751.539819 23364.029226 22739.022928 22559.821578 21350.684491 20858.783475 20181.764762 19765.410814 19362.698908 19428.148950 18624.781630 19076.208128 17747.031773 18238.026442 16768.638609 17118.485476 15854.717524 16147.470343 15070.812880 15420.476688 14354.099011 14759.221167 13626.808157 14013.531779 12879.769569 13201.865906 12154.060111 12432.645944 11475.790311 11751.724356 10831.795655 11117.489710 10196.030836 10475.803747 9559.895738 9818.838591 8933.752632 9174.705697 8328.739849 8563.307876 7745.358739 7978.872720 7177.718088 7406.075443 6622.689812 6839.602509 6082.741249 6286.113231 5562.231156 5753.646306 5063.676822 5244.499417 4587.742672 4757.151516 4135.364273 4291.355247 3708.999263 3850.187910 3312.045976 3438.452996 2947.442857 3060.212420 2616.643220 2717.440250 2319.355940 2409.906425 2053.848727 2135.670328 1817.511777 1891.764358 1607.484423 1674.927773 1421.216235 1482.295215 1256.850142 1311.881271 1113.353089 1162.726111 990.403722 1034.713011 888.125841 928.208255 806.781032 843.656697 746.726889 780.654691 709.008035 739.954553 694.381485 724.696323 7555.795138 8025.199465 7669.490895 8268.377394 7508.007024 5077.349102 3870.080862 4080.780817 3170.079375 3048.381426 2552.838714 2470.596610 2502.354124 1064.224844 -852.106949 -2147.346536 -1294.581828 -7964.054807 -8974.552231 -4727.878465 -3081.424277 -7703.646757 -8765.399121 -7311.036333 -6277.070801 -5401.038298 -4598.606749 -3861.862605 -3198.097346 -2613.635910 -2109.782020 -1683.161215 -1327.377587 -1034.611740 -796.719035 -605.840215 -454.683144 -336.629334 -245.764974 -176.884602 -125.482584 -87.732765 -60.453350 -41.056250 -27.483335 -18.134358 -11.792122 -7.549969 -4.745803 -2.907923 -1.734551 14412.383997 14631.476694 11161.668435 11503.327258 9692.652704 4492.289419 2089.597749 4197.972454 223.840328 1966.732643 497.050588 391.910796 2090.723647 908.748229 -5108.599390 -9642.481477 -1031.332610 -9080.786472 -10823.374697 -3899.587805 -3824.856288 -10711.190738 -10048.370863 -7273.653678 -6290.989236 -5417.091137 -4614.080509 -3878.085335 -3215.123860 -2630.705298 -2126.054457 -1698.051162 -1340.598872 -1046.102015 -806.546528 -614.134266 -461.594491 -342.312063 -250.370129 -180.558193 -128.364263 -89.953935 -62.134855 -42.306209 -28.395642 -18.788099 -12.251876 -7.866667 -4.956828 -3.028624 -1.696521 798.210968 879.770271 983.129992 1099.474799 1219.855143 1333.982792 1430.103874 1493.610918 1497.770185 1354.788872 987.856798 829.286531 794.421340 683.256751 574.052336 476.742862 390.972586 316.344602 252.365025 198.396085 153.645232 117.189450 88.021146 65.102251 47.416085 34.010226 24.026997 16.721008 11.465077 7.746949 5.159628 3.387972 2.193809 1.401204 0.882990 0.549123 0.337095 0.204320 0.122308 0.072325 0.042258 0.024403 0.013930 0.007863 0.004389 0.002424 0.001324 0.000715 0.000381 0.000198 0.000094 783.367996 864.276453 964.106646 1076.153577 1191.397471 1298.843464 1384.689666 1430.035079 1408.503813 1293.890688 1101.985483 944.646161 810.918843 686.412635 576.531259 479.022526 393.155198 318.435354 254.341630 200.228921 155.307096 118.660942 89.293050 66.175656 48.300986 34.723273 24.588998 17.154581 11.792719 7.989638 5.335948 3.513699 2.281852 1.461787 0.923975 0.576397 0.354958 0.215839 0.129625 0.076905 0.045085 0.026123 0.014963 0.008475 0.004747 0.002631 0.001442 0.000782 0.000418 0.000219 0.000111 -1.083518 -0.806941 -0.984672 -0.743288 -0.675567 -0.564466 -0.378966 -0.370631 -0.222905 -0.226519 -0.131529 -0.135211 -0.077158 -0.079637 -0.044884 -0.046421 -0.025879 -0.026805 -0.014789 -0.015340 -0.008379 -0.008702 -0.004707 -0.004895 -0.002622 -0.002730 -0.001449 -0.001511 -0.000795 -0.000829 -0.000432 -0.000452 -0.000233 -0.000244 -0.000125 -0.000131 -0.000067 -0.000070 -0.000035 -0.000037 -0.000018 -0.000019 -0.000010 -0.000010 -0.000005 -0.000005 -0.000003 -0.000003 -0.000001 -0.000001 -0.000001 -0.000001 -0.000000 -0.000000 -0.000000 -0.000000 -0.000000 -0.000000 -0.000000 -0.000000 -0.000000 -0.000000 -0.000000 -0.000000 -0.000000 -0.000000 -0.000000 -0.000000 -0.000000 -0.000000 -0.000000 -0.000000 -0.000000 -0.000000 -0.000000 -0.000000 -0.000000 -0.000000 -0.000000 -0.000000 -0.000000 -0.000000 -0.000000 -0.000000 -0.000000 -0.000000 -0.000000 -0.000000 -0.000000 -0.000000 -0.000000 -0.000000 -0.000000 -0.000000 -0.000000 -0.000000 -0.000000 -0.000000 -0.000000 -0.000000 -0.000000 -0.000000 -0.000000 -0.000000 -0.000000 -0.000000 -0.000000 -0.000000 -0.000000 -0.000000 -0.000000 -0.000000 -0.000000 -0.000000 -0.000000 -0.000000 -0.000000 -0.000000 -0.000000 -0.000000 -0.000000 -0.000000 -0.000000 -0.000000 -0.000000 -0.000000 -0.000000 -0.000000 -0.000000 -0.000000 -0.000000 -0.000000 -0.000000 -0.000000 -0.000000 -0.000000 -0.000000 -0.000000 -0.000000 -0.000000 -0.000000 -0.000000 -0.000000 -0.000000 -0.000000 -0.000000 -0.000000 -0.000000 -0.000000 -0.000000 -0.000000 -0.000000 -0.000000 -0.000000 -0.000000 -0.000000 -0.000000 -0.000000 -0.000000 -0.000000 -0.000000 -0.000000 -0.000000 -0.000000 -0.000000 -0.000000 -0.000000 -0.000000 -0.000000 -0.000000 -0.000000 -0.000000 -0.000000 -0.000000 -0.000000 -0.000000 -0.000000 -0.000000 -0.000000 -0.000000 0.000000 0.000000 0.000000 0.000000 0.000000 0.000000 0.000000 0.000000 0.000000 0.000000 0.000000 0.000000 0.000000 0.000000 0.000000 0.000000 0.000001 0.000001 0.000002 0.000002 0.000004 0.000004 0.000010 0.000009 0.000026 0.000019 0.000047 0.000031 0.000058 0.000039 14957.932215 13196.428706 13996.201242 10682.144190 12329.791460 8650.013555 9793.680990 6954.278432 4845.601795 4223.753502 7105.619090 20534.421951 12228.089243 12031.894069 12268.073259 13280.846229 10902.758894 9844.780615 10225.049301 8695.218431 9498.309710 6402.536735 16631.065820 13300.219375 16189.286598 12770.751185 17312.445192 12173.351473 11441.639708 8658.547022 7063.878495 12810.244537 7444.373325 15592.695072 13372.775105 13609.284263 16431.801352 16869.831724 13450.538506 7862.150479 13463.944094 11454.191998 6915.461307 5459.177690 18998.580537 15421.411389 18189.246173 15109.013370 16289.699837 15803.912168 6712.166301 11776.584189 13590.350992 14339.697187 13489.701441 13493.280089 17936.512036 21164.668093 15224.284092 16301.211038 13413.359735 9854.711156 14693.174798 10242.383721 12991.188759 6719.215518 18850.659446 18219.405367 18126.898981 12018.522297 13936.801760 15439.461369 14443.952392 13170.908526 13300.003429 10666.790073 6915.327386 18029.866783 18368.293941 17031.036459 16757.429384 16093.893113 12734.922321 13559.548626 9793.247844 9304.367125 10493.872425 11501.939157 15661.232905 17505.666653 21262.470919 13719.820126 16150.022884 13261.899468 13870.335991 13453.561598 8244.516681 12705.715921 9632.151033 18287.477952 17789.144685 14567.833818 16993.732064 14041.170581 14181.346066 11217.498508 10264.445239 9827.108579 8817.037465 8059.778889 17427.243968 13695.712480 19695.819978 14973.079187 14267.295657 9868.596146 12787.048276 11357.014624 10767.800864 8659.894442 9299.263848 17745.341528 19245.366506 19010.159639 18665.696046 15650.847562 14162.183015 12586.366137 12213.256005 9924.333021 11504.116683 6044.098462 18895.023201 13126.847278 16120.327458 15205.021947 13695.097534 13104.458604 12663.978621 11361.694153 11162.773554 9971.042985 5252.011286 19754.678721 19570.813128 17754.321073 18258.267610 15615.331948 15381.345471 15282.803122 11844.838562 10285.729567 8671.977067 3296.969974 17278.808234 17329.473678 18002.568835 16662.675016 14211.566860 15009.858341 11908.808196 11875.938140 7018.256111 7839.382688 3784.281596 17633.280338 19385.355303 18524.095502 15433.109811 11554.083750 10512.036439 10935.306981 7514.614081 3668.934216 -1842.604643 6856.710294 21107.376961 19215.105322 17048.938148 16058.006715 14995.981253 13892.472205 13360.275810 5901.953457 2493.101145 662.756159 -17451.438442 21980.222283 19241.521833 17684.230580 19161.254880 11121.691121 13425.058642 7251.015484 7433.253314 6808.450357 2959.743257 -13172.788600 18670.356522 19041.510626 18694.902542 16922.283784 14041.547711 13466.076486 12493.156755 6939.134914 -627.729761 4801.743188 -14225.306277 19820.004388 22119.331077 17670.730032 14883.932907 14906.482124 8819.566237 7039.258059 7782.856890 130.825541 -4104.402400 5467.155926 20489.132995 21650.801379 17693.835116 13597.100365 15802.437866 9947.425771 4740.300292 -57.230772 -1839.363391 -3376.668659 4545.142918 20357.591781 19837.852283 18221.717930 16559.333372 9592.800010 14935.793312 3334.127834 2921.862190 4358.361723 -1254.844152 11577.379627 21501.629912 21041.392032 19201.066870 16684.679939 8842.438477 5949.868742 9713.750506 3053.789176 860.427998 3247.658526 762.534235 21163.872947 21071.697435 18665.563096 16046.464701 10272.760384 8064.530358 6599.657983 4311.746419 -1159.315537 5582.220119 13488.277634 21267.791339 22261.294949 17949.342491 15862.933831 12634.153288 7620.100092 1432.532387 -1642.530495 1251.389141 1109.916610 -570.327911 21709.885511 23151.738524 16949.340818 16775.940660 11002.203184 6240.803504 4645.752738 4412.144754 -3090.015005 6173.826040 -1783.181119 20298.236759 23460.151385 16792.847573 16972.298998 11654.169416 7721.842165 4936.968702 -3350.602801 -1498.240712 2306.418388 2514.260329 20099.760555 24476.364951 17045.668469 16155.349986 12047.636612 8586.736949 7035.283032 5160.960626 -106.422986 1118.927862 2099.707944 19784.907431 23943.793277 17299.914344 15076.704519 11583.793159 5829.098043 5775.733016 -935.766130 4172.459389 7843.258629 8925.486499 20542.639522 22495.036599 17777.127650 14182.384662 12333.066550 9485.412627 4435.107901 3298.215237 248.985342 -676.625111 7311.803140 19738.636479 21685.342329 17745.364631 13963.726615 11092.357815 10365.605161 4620.774068 3428.120763 1353.192557 6297.215182 2390.350520 20075.928061 21353.808893 16992.715740 14449.696748 10080.316928 9987.914424 4359.445040 5190.060026 4176.636067 3420.711880 3089.184351 19733.484579 20410.650537 16618.104315 14401.383207 10601.549246 9567.747890 7020.391926 4907.542869 4729.942794 3898.228265 7493.383657 19770.898611 19877.627929 16562.433506 13456.235679 11304.236869 8808.133435 8920.029302 1658.754451 5228.051828 -400.206700 4606.784466 22086.104405 20182.189454 16682.865156 12836.557915 12238.414314 7292.505668 9865.647422 1234.856165 6689.927197 977.862136 2909.316794 17788.756720 19044.132010 16228.602205 12893.942580 13169.024379 7258.270172 10420.371164 3016.655112 7535.656406 3523.742726 458.559892 16888.111848 21167.368920 14995.096275 13945.015524 12342.757724 7917.247464 9640.544588 5804.664067 5874.409336 3994.483525 -2484.689575 17961.846458 20890.962817 14006.766591 14746.652022 11219.435418 9599.888075 7340.252251 8371.414979 2530.768317 4188.400180 -4872.334876 17785.474824 19050.552356 15042.885974 14483.921585 11257.123141 9523.572987 6995.073766 8811.535504 188.661027 5039.804082 -6493.494867 17236.854769 18302.396514 14189.087641 13814.720228 11639.686605 9808.149651 5717.338207 7370.936373 -887.816168 6669.541024 -5817.686868 21449.585917 17574.543756 17261.164942 13202.490803 11093.150389 11290.008126 5514.993081 7563.779420 755.009212 6467.480526 -4220.498806 17745.012095 15623.902423 18925.975594 12115.883731 11790.368630 8460.563175 7882.716115 5565.151592 2724.219214 3426.329672 -2338.318204 19968.942390 15844.026889 16817.431893 9663.392780 12661.764284 6665.887350 7949.962723 4884.507248 3204.084200 2285.809763 -208.855271 17505.030932 17289.797867 17443.343035 10934.605248 13279.128126 8469.877467 7607.251945 3645.058995 4540.420236 1183.567847 3791.940954 20166.303164 17869.742528 16015.933759 12878.737803 11397.334573 8765.050497 7828.695098 4380.589270 7278.159916 -723.451767 7821.841660 16292.122146 18446.807543 13513.686240 13682.088929 11285.635218 8623.196097 8491.517764 4442.413679 6335.729072 1340.158818 11818.876385 18021.396443 18644.649199 15585.255304 13029.735383 10764.243921 10726.683955 8902.295241 5015.038919 6700.728611 -1401.624648 13664.179123 23687.470480 13444.817621 11366.492515 13149.477445 9428.662430 10044.577910 8206.749398 6047.553593 7631.117967 -512.269343 13679.317580 19106.924870 8513.092558 14964.416709 13290.252241 11089.091526 11333.625413 8474.499177 7288.037571 5464.799200 3277.773609 10305.464216 8416.382147 3642.800776 10106.473546 12675.627690 11325.736698 8729.905109 7915.636890 6259.214719 4910.985467 3259.187815 6739.723379 2451.963865 -4425.218164 7283.765067 11850.697635 11101.110925 9709.833384 7553.021890 6470.655515 5696.531233 2242.908787 5796.455823 9480.957538 12772.320796 13433.569083 10991.843706 10464.812945 9036.702563 8388.598785 5049.644103 4986.901984 3408.952479 3780.804951 20444.793687 16935.074694 12834.250552 9991.079977 8735.293051 9226.584167 6349.844063 4671.615428 5089.222070 1512.976206 3115.612061 29451.613538 15513.252298 8684.431379 10757.009458 9716.232130 7301.240203 7281.673122 4509.439155 5360.803342 738.481650 3135.011438 22853.055844 -3490.303313 3309.491870 6646.289278 8792.884930 7315.027227 6605.141610 4495.748784 3404.397766 2011.009975 1784.708432 15271.844023 3841.030347 7370.857138 7612.818529 7766.773897 8073.937364 5991.022427 4310.044838 2567.833612 2358.099530 732.813681 12580.911041 7069.750526 7503.740037 12072.390693 8217.761970 7693.578188 4691.107176 4701.279598 2787.036426 997.439396 1497.174173 17953.550304 14543.554369 13372.850993 10191.370555 8718.566686 6428.905322 5524.623331 4165.739413 2251.195707 1319.066640 1028.346112 22922.363795 23229.480163 9785.623947 5776.150883 7138.372032 6225.214934 5906.598030 3498.551273 2532.444817 2121.130187 865.535408 22159.603127 18999.182694 -5367.838405 1265.246038 5558.151174 5519.762076 5817.494556 3248.186019 3222.311481 753.739475 1621.141228 17954.275871 10891.120948 1751.972286 5075.440523 8672.246902 5857.987363 6259.141577 3227.329026 3531.053717 1462.055890 1603.738506 17048.158581 9538.637434 5220.441657 5671.891559 8991.793222 5242.618449 5605.911967 4193.097461 2786.813242 2495.957269 1034.904241 18557.349147 14920.207761 10226.862878 10747.173837 8759.770463 7376.017895 5769.886521 4702.905348 2439.886046 2026.529894 1203.080976 19545.229211 20513.973126 21612.566085 9165.335233 5177.532071 5628.386174 5816.430485 3531.256826 3590.897842 1787.354687 1349.331948 18789.837346 19728.923105 16340.820258 -5237.017341 2463.106593 5468.300024 6162.412647 4721.528418 2933.520518 2235.938682 606.226973 17161.110463 15564.847781 9016.404059 1504.337366 3588.307864 6557.008557 5749.883213 4857.435280 1870.803824 2143.839078 784.709848 16229.814371 14967.900311 10146.131989 6684.927776 5757.756749 6824.195410 4861.557670 4873.247125 2940.944321 1951.851021 1315.676976 15916.240200 16191.205013 14923.402850 12449.245089 10827.119691 7245.050376 6273.075783 4643.426960 3313.656554 1912.956722 643.838810 15564.742279 16844.558635 19564.894467 24250.204516 10406.729179 6193.142665 5556.459223 6032.204840 2536.526057 2770.046677 705.335426 14805.862475 15951.566605 18345.085598 17776.145481 -4528.424818 2846.625087 4770.903493 6524.256286 3900.142296 2152.588190 1778.240500 13799.659186 14297.028391 13842.315575 9237.558714 289.212210 3020.465997 4828.535730 6068.324317 3956.886378 1784.511301 1450.794891 12937.916438 13349.640866 13038.457129 10797.727732 7773.579195 5937.389712 6987.460847 4615.546088 4081.057123 2753.255349 1334.467034 12302.810799 13000.860328 13731.726247 14028.605076 13241.781535 11025.471938 6803.047907 5729.724495 4227.174424 2502.465538 1849.834080 11729.185663 12662.907820 14136.709596 17172.371628 22860.221470 10914.693053 7108.538624 5547.196953 5823.475063 2370.545980 1706.691058 11072.760554 11961.766639 13204.549274 15592.645347 15671.759047 -5267.689201 5511.149635 4070.072412 5861.331046 3238.461736 1435.788412 10348.233511 11040.164538 11657.851529 11613.430983 8910.480865 1166.745415 1776.804376 4637.369841 4838.049353 2539.904270 1867.791702 9656.763203 10260.083784 10797.169720 10901.113525 10015.299088 7000.218127 6833.462599 6126.573666 2934.369181 2971.517256 1888.296169 9041.306860 9687.463645 10466.674342 11318.036614 12034.640051 12023.848533 8972.912369 6307.019990 3947.103489 3106.637114 1865.143808 8465.988047 9170.853991 10164.777161 11678.101106 14778.981993 20586.770780 9460.067112 6457.494225 4246.416421 2971.600628 2316.416726 7883.220257 8573.213859 9521.933520 10813.353194 13339.035413 14459.787623 -4979.640850 4551.841949 3490.487108 4640.181294 2048.052149 7285.908241 7902.876591 8649.093779 9303.527152 9377.413379 7182.379609 691.153099 394.988352 4148.366113 3895.058138 1916.688531 6699.447571 7254.482480 7890.314477 8413.873022 8504.725344 7976.591592 5937.011764 6345.464439 4429.941568 1961.309657 1399.186125 6143.599447 6674.772237 7325.025388 8037.113358 8769.698178 9325.364536 9538.842633 6511.446449 4347.583643 2462.102998 2302.269223 5616.926226 6140.094944 6833.003150 7745.506112 9100.245881 11833.776785 16096.457703 6529.721985 3941.066840 3201.713644 1690.163580 5109.016792 5611.488599 6294.821428 7212.958213 8507.537677 11084.943275 13276.485615 -1522.731080 1362.902807 3516.276142 1862.291969 4615.866292 5077.581892 5694.247502 6461.362660 7286.076684 7856.853577 6707.241583 715.386798 444.810158 3290.445910 2009.480530 4143.007355 4554.016429 5087.589162 5710.322605 6325.173487 6862.740290 7472.624747 4968.499666 6297.136853 3365.317375 1625.773309 3699.496147 4060.917034 4520.986586 5044.384734 5563.174806 5996.646695 6510.878326 5611.717434 2216.042510 4121.679323 2011.528553 3292.258255 3610.330379 4011.336315 4466.615070 4939.588316 5427.667731 6395.578624 6741.337828 5828.770397 2707.163629 1568.696057 2924.376945 3206.323277 3560.259121 3961.958179 4379.783018 4776.968247 5162.800192 5099.293286 3740.445572 2927.632588 1575.867136 2595.678249 2848.279056 3165.331244 3525.459916 3896.929168 4230.281984 4464.032100 4579.037545 3502.459643 2196.990982 1799.173974 2303.711602 2532.734519 2821.919799 3154.408915 3504.837147 3831.253149 4054.669587 4077.211483 3438.744703 3509.482149 2021.930816 2044.624631 2254.134000 2521.761583 2837.107746 3187.873565 3559.410386 3924.192016 4150.458697 3771.671670 3257.793599 1611.978918 1814.116871 2006.006561 2254.035453 2553.567257 2905.015217 3325.938089 3886.388715 4817.754491 6081.642287 2744.427141 1416.659766 1608.488557 1782.867740 2009.458467 2285.725327 2615.175687 3020.295781 3578.807585 4753.436506 6243.315562 2196.725747 1044.657212 1425.437916 1581.842610 1784.232802 2028.427376 2311.368112 2630.942360 2969.046600 3287.956547 3153.733698 1054.567952 1480.430290 1264.243599 1402.901267 1580.336073 1789.685795 2020.854723 2254.751875 2445.054491 2490.223210 2284.748734 1904.583490 1642.204634 1125.346644 1247.738308 1402.306415 1580.709078 1770.522906 1951.747121 2091.769129 2145.770061 2073.380372 2002.938161 1852.829183 1009.721266 1118.389430 1253.980246 1408.151792 1569.593336 1723.550160 1853.609658 1949.109290 2007.098107 2054.847124 1881.463823 918.470879 1016.535150 1137.421401 1273.643097 1415.706489 1553.050061 1677.762648 1794.147856 1956.831581 2214.997410 2418.163326 853.096635 943.620900 1053.451812 1176.685208 1304.686626 1427.978443 1538.271151 1630.628699 1712.930681 1729.288085 1421.032927 4883.694828 3381.273143 4845.557915 3067.292058 2088.679260 2043.227012 1135.881155 556.649295 692.245838 -1150.825168 -1146.303620 -30.897934 -6159.613886 -3666.226690 4653.973618 3437.472316 6777.864779 1788.934715 2188.286780 2159.853958 1359.195983 27.812333 -66.184724 476.549551 108.814961 701.037223 -3055.066044 1340.341132 10877.831136 3713.867997 5010.894800 4778.028051 3321.722507 1762.070289 1421.940156 1413.564951 -148.429352 -136.711116 -373.881549 -645.810547 -313.049450 -181.302958 11032.942729 7954.875646 3933.336509 6062.113422 4762.118101 4436.548031 2837.391041 1167.824613 619.973610 -353.103796 119.552920 90.116416 -379.597499 -105.307867 5117.047844 5619.235208 11932.104001 4931.610248 5947.963011 3864.453895 3308.432107 1694.702841 325.682991 37.260225 332.691515 183.391402 -492.903510 -183.014273 5609.858367 11208.882221 10318.073047 5375.691103 7063.553064 6232.846036 3794.530384 2727.930059 2069.185193 1162.292170 1058.183788 732.965002 59.302240 304.119540 7104.188772 8354.082936 8157.345020 4995.667927 6128.306233 4147.744045 4014.712310 3132.901745 2080.126987 1424.498313 1571.812661 1179.547144 372.318533 370.666885 7422.789670 7087.853465 5440.519669 5997.031570 5378.620679 6387.817976 5133.647151 4220.406870 3827.998869 3700.945319 2895.254555 1541.584869 909.427649 843.653590 7823.805076 7239.225366 9866.112845 5601.110116 8135.869509 5374.489263 5390.851669 3566.286120 4545.662155 3802.063053 2760.702828 763.301359 798.030227 1119.982003 10120.890101 8686.118450 8111.127014 4108.684427 5857.873342 2323.509515 4964.845684 5945.976590 5274.428997 4368.833739 3004.168447 520.468737 544.069024 1273.655922 7952.503581 7756.696017 6942.656045 4830.379837 5655.969125 5811.230336 5984.555995 7247.922008 5282.267089 4329.644907 2395.381467 -757.366150 962.255073 1114.654163 8973.286361 4831.385134 6941.891477 9253.026308 4099.311819 1041.818945 4135.508846 3904.911637 3154.098160 2950.635471 -31.941633 -85.436549 -911.997782 1653.056272 7461.699098 3453.666869 1102.870538 7626.946962 5442.186496 880.872301 8945.721736 2762.594744 6252.939997 4429.371849 25.326615 3905.219993 -407.506475 1475.993928 -401.282878 -626.285750 6199.153611 1076.018430 4482.227393 648.460229 2271.907054 3367.416154 6401.249321 4333.161244 3263.757214 4066.402850 -1492.825607 683.486695 1591.472039 10634.251653 -3525.132013 286.328871 9565.168796 -1186.325941 2870.325505 -3138.074690 1372.769886 -423.262493 4456.774753 372.201984 -151.882615 3860.455783
</DataArray>
<DataArray type="Float64" Name="Velocity" NumberOfComponents="3" format="ascii">