<VTKFile type="PolyData">
<PolyData>
<Piece NumberOfPoints="1945" NumberOfVerts="1945" NumberOfLines="0" NumberOfStrips="0" NumberOfPolys="0">
<PointData>
<DataArray type="Float64" Name="Pressure" format="ascii">
 58176.177734 55990.607882 59161.120311 52099.260981 64923.122749 59096.858106 61116.534865 57530.898661 55450.620520 53026.240123 55187.256824 52159.341406 56306.859386 55574.838068 56519.556129 55390.531997 54744.990100 53148.177680 51260.036227 51480.186196 43711.461937 40369.901793 48833.181400 48120.615327 46259.009529 46561.882615 40074.865898 37782.160180 45138.747681 45435.868330 39069.338023 34970.106949 39647.297950 36558.810346 46030.604963 44841.662782 36538.804742 32524.973052 36661.476185 35954.056949 34176.496928 34376.118150 31343.852654 32780.703093 32331.420253 35896.045293 31074.401602 35899.867070 28735.541199 32780.933950 28298.126543 32439.705371 27569.654163 31416.969178 27320.286193 31927.186464 26085.156475 30540.429646 25143.350823 29471.662638 24627.486163 29489.908423 24229.077516 29653.125368 23882.839748 29082.932159 23691.356208 28379.244018 23662.073400 29036.360584 23402.542772 29276.410480 22718.356507 28517.646955 21694.102111 26854.366748 21151.881043 26529.069051 20992.379877 26020.718374 21247.108066 25707.784600 21606.220359 26154.328141 22063.888037 26526.280451 22338.624621 26541.853262 22994.930943 27403.095934 22678.724659 27500.409930 21727.322060 27088.848516 21999.805794 26899.448710 24086.446725 33245.398685 25769.443932 42866.285241 26056.026374 44437.301820 21642.154108 27062.493240 15162.339701 16707.814572 13708.490160 15139.985715 15809.213692 17784.904591 18485.864164 21267.325263 19080.389679 20660.631721 17981.350305 16663.968959 17560.920804 15546.699776 18240.489017 16936.959943 19075.805143 18592.568619 19142.796112 18655.500073 18502.777833 17508.552026 17825.100888 16791.217313 17378.715826 16813.860875 16936.634612 16833.094048 16253.335159 16293.189665 15369.781563 15355.514875 14484.038460 14501.653585 13689.590695 13857.806158 12936.830442 13245.674048 12157.438938 12511.911014 11353.004853 11688.104258 10572.666516 10898.192351 9846.694242 10194.359140 9165.705845 9539.226839 8508.003275 8884.719145 7867.235545 8226.928953 7252.535287 7593.336237 6672.282579 7001.636632 6125.161102 6445.811223 5604.770531 5911.945959 5107.670316 5395.417471 4635.402789 4901.901758 4190.794091 4437.606869 3774.457461 4002.930311 3384.901162 3594.407545 3020.824519 3209.824761 2682.656382 2850.570400 2372.152179 2520.134141 2090.942449 2221.383616 1839.375420 1955.004784 1616.219921 1719.474070 1419.035363 1511.809382 1244.804588 1328.433617 1090.552174 1165.902761 953.818047 1021.451024 832.923949 893.300712 727.010478 780.682688 635.879177 683.603573 559.724623 602.492567 498.851230 537.830030 453.658244 489.265568 425.230703 457.613485 414.596343 446.215423 55544.483673 56791.463213 59500.540577 57095.772429 48505.629191 43133.952749 38415.112971 35191.567287 31474.745379 27980.319025 24845.386869 22197.249382 19492.948727 16832.854110 13589.965626 11180.178608 10041.410789 4846.831869 -892.907051 -3113.536637 -3502.059463 -7558.935154 -9076.162618 -7522.830370 -6147.420761 -4995.868281 -4052.317852 -3277.467426 -2637.803124 -2106.368342 -1663.668592 -1296.118671 -993.839104 -748.826301 -553.814887 -401.769256 -285.807499 -199.353463 -136.357552 -91.485531 -60.227989 -38.922459 -24.703517 -15.405768 -9.444594 -5.694448 -3.377674 -1.970524 -1.128386 -0.629700 -0.340570 50415.875627 54848.382702 54362.926468 52970.317708 45311.084983 41121.464628 36283.052028 34250.058776 29934.281243 25123.137371 20394.945325 16653.997219 12471.628401 11211.839671 9098.068060 8522.242233 8339.074623 -3271.008800 -4546.223100 -2704.427363 -1956.708011 -6552.744662 -9395.596107 -7432.111142 -6122.724136 -5026.670493 -4087.371706 -3307.434696 -2661.968034 -2125.936394 -1679.928840 -1309.988482 -1005.848660 -759.234746 -562.737696 -409.274151 -291.970865 -204.283515 -140.194966 -94.392080 -62.371380 -40.462638 -25.782990 -16.144471 -9.938659 -6.017710 -3.584713 -2.100265 -1.207356 -0.672873 -0.339841 520.276663 610.472311 727.676126 864.118997 1011.327642 1158.717232 1293.154329 1397.019090 1434.871101 1307.321081 959.268313 790.238691 737.414207 625.749948 516.310025 418.188323 332.293161 258.904052 197.735468 148.011399 108.584975 78.083147 55.048569 38.058726 25.812082 17.179489 11.224977 7.203212 4.541660 2.814719 1.715425 1.028510 0.606911 0.352614 0.201793 0.113792 0.063253 0.034672 0.018748 0.010004 0.005269 0.002741 0.001408 0.000715 0.000359 0.000178 0.000087 0.000042 0.000020 0.000009 0.000004 509.144355 598.411283 711.763481 843.388306 984.631097 1123.965239 1245.699526 1326.811336 1333.354680 1232.507774 1045.480258 885.107034 751.274152 628.581608 518.637654 420.546540 334.706199 261.288636 199.997166 150.072054 110.392476 79.613047 56.300856 39.051978 26.576805 17.751937 11.642219 7.499716 4.747338 2.954142 1.807877 1.088535 0.645102 0.376445 0.216388 0.122571 0.068443 0.037689 0.020474 0.010976 0.005808 0.003035 0.001567 0.000799 0.000403 0.000201 0.000099 0.000048 0.000023 0.000011 0.000005 -0.192913 -0.131550 -0.175415 -0.121918 -0.113641 -0.089626 -0.056960 -0.055180 -0.030374 -0.031031 -0.016318 -0.016957 -0.008730 -0.009127 -0.004634 -0.004859 -0.002439 -0.002562 -0.001272 -0.001339 -0.000658 -0.000694 -0.000338 -0.000356 -0.000172 -0.000182 -0.000087 -0.000092 -0.000043 -0.000046 -0.000022 -0.000023 -0.000011 -0.000011 -0.000005 -0.000006 -0.000003 -0.000003 -0.000001 -0.000001 -0.000001 -0.000001 -0.000000 -0.000000 -0.000000 -0.000000 -0.000000 -0.000000 -0.000000 -0.000000 -0.000000 -0.000000 -0.000000 -0.000000 -0.000000 -0.000000 -0.000000 -0.000000 -0.000000 -0.000000 -0.000000 -0.000000 -0.000000 -0.000000 -0.000000 -0.000000 -0.000000 -0.000000 -0.000000 -0.000000 -0.000000 -0.000000 -0.000000 -0.000000 -0.000000 -0.000000 -0.000000 -0.000000 -0.000000 -0.000000 -0.000000 -0.000000 -0.000000 -0.000000 -0.000000 -0.000000 -0.000000 -0.000000 -0.000000 -0.000000 -0.000000 -0.000000 -0.000000 -0.000000 -0.000000 -0.000000 -0.000000 -0.000000 -0.000000 -0.000000 -0.000000 -0.000000 -0.000000 -0.000000 -0.000000 -0.000000 -0.000000 -0.000000 -0.000000 -0.000000 -0.000000 -0.000000 -0.000000 -0.000000 -0.000000 -0.000000 -0.000000 -0.000000 -0.000000 -0.000000 -0.000000 -0.000000 -0.000000 -0.000000 -0.000000 -0.000000 -0.000000 -0.000000 -0.000000 -0.000000 -0.000000 -0.000000 -0.000000 -0.000000 -0.000000 -0.000000 -0.000000 -0.000000 -0.000000 -0.000000 -0.000000 -0.000000 -0.000000 -0.000000 -0.000000 -0.000000 -0.000000 -0.000000 -0.000000 -0.000000 -0.000000 -0.000000 -0.000000 -0.000000 -0.000000 -0.000000 -0.000000 -0.000000 -0.000000 -0.000000 -0.000000 -0.000000 -0.000000 -0.000000 -0.000000 -0.000000 -0.000000 -0.000000 -0.000000 -0.000000 -0.000000 -0.000000 -0.000000 -0.000000 -0.000000 -0.000000 -0.000000 -0.000000 -0.000000 -0.000000 -0.000000 -0.000000 -0.000000 -0.000000 -0.000000 -0.000000 -0.000000 -0.000000 -0.000000 -0.000000 0.000000 0.000000 0.000000 0.000000 0.000000 0.000000 0.000000 0.000000 0.000000 0.000000 0.000000 0.000000 0.000000 0.000000 0.000001 0.000001 0.000002 0.000001 0.000002 0.000001 55624.249214 49727.092381 55523.797800 53531.657300 53658.879116 47228.481998 48339.015816 45097.260005 44757.538387 39700.138142 38598.142498 55169.246612 50884.545345 50618.569049 48462.330603 48261.681943 49196.284636 45999.357846 46326.580092 42979.231493 42584.252564 40445.015936 51727.620971 49031.950182 50968.486141 54642.017740 50651.266112 50811.018400 49586.801770 44241.483797 44538.745132 41999.946843 39774.651278 52652.284113 52035.562772 46418.638917 52746.545763 44874.128105 46639.716380 44478.194022 42077.866070 39277.911726 37811.523763 35499.992357 50551.023577 46215.691127 47091.154709 46644.925065 45415.472350 42044.174865 41445.091008 40379.187599 38906.212396 37191.028720 35238.797818 42915.786252 43624.006960 42527.445818 43519.349008 44746.520543 41374.034923 38287.071477 39850.661216 39009.675950 34967.831883 35140.137780 46409.140245 50263.618416 49663.548396 45357.374182 43205.753719 43461.436664 38804.285478 38186.540222 32565.195135 31906.671824 35297.859400 38713.907543 39508.443841 41049.646342 40117.268715 39452.666403 37643.081023 37565.926067 36317.377744 35447.179348 31947.032148 27884.814716 41042.511702 43326.013225 42985.619166 39834.004778 38395.206463 38236.571833 37869.439331 34561.498690 32200.005060 33464.120359 32452.217694 38392.385796 38866.605792 34059.862175 35155.350522 36952.959086 33370.565908 30158.821658 29742.451477 28561.870943 23836.961651 24512.592207 38971.745036 37602.428411 37142.568255 34596.356728 30744.762477 31221.144688 32581.158184 26807.338912 25725.113076 23561.184623 17813.774244 32824.514861 33895.983624 31153.752278 30459.800781 30914.289459 27876.936671 25180.044586 23265.105006 22511.893400 22153.620821 10769.013932 34481.607280 34923.714532 32274.177334 28979.136770 27955.429627 22092.360930 22761.544516 19512.974310 17533.617883 15911.760325 10166.673961 34595.526538 34042.576839 29254.573826 27878.273454 26305.705882 22485.477874 18124.967659 18844.953224 16232.177240 15086.787793 9054.527427 34232.647370 31700.892681 30251.587802 26419.850386 25012.702728 19353.324163 17230.599426 14867.265869 10803.621520 14815.473951 10700.659548 32351.453823 29641.270153 28874.887865 24329.088600 21875.154928 16577.651260 17163.513387 10201.198931 12005.633844 5911.729549 1718.745425 31167.388987 30011.253245 28284.491527 22937.225980 23950.380756 14971.451403 20820.185267 13520.274849 6255.567470 -6077.188025 13717.128170 31049.635963 29686.010983 25944.502288 24230.206709 19991.909903 16226.222963 10621.473666 12700.703512 12160.366280 6054.032632 7834.654255 30734.443720 29456.762258 25610.390387 24523.297720 18417.966314 18678.538614 12929.365414 10015.666085 7093.769417 4807.787947 6982.385931 31868.847879 28441.356962 26849.640652 21951.421986 19580.110367 13580.777688 10717.993083 13150.367983 2813.739328 2551.860152 16619.318412 32426.238332 28534.879913 26989.259891 21965.666375 18454.343120 18176.197585 8584.795633 7184.257914 3635.429771 3521.941447 11322.655577 32148.162705 28891.266463 25902.820455 23244.076191 15043.610487 17889.962732 13916.221760 8086.301982 6242.198450 3890.212228 -5612.683063 32557.088151 28342.663301 26101.221622 22780.784111 16384.202476 15078.055985 12455.799300 7206.046609 2288.373139 29.252884 2796.200616 32517.345136 28039.314071 26427.798421 21990.203866 18592.442378 13256.468958 12326.364303 9196.864121 3398.311116 2818.474756 8930.151203 31646.018434 28396.562348 26249.243418 22233.654495 19192.419607 14214.123098 12817.239367 7329.158891 5201.586614 2775.005922 9011.018389 31533.834293 28854.679434 26139.146514 22907.738955 19136.608186 14261.833449 12251.732381 6891.964404 6406.271482 4546.589034 5684.407299 31685.295760 28797.241312 26250.606614 22977.898159 19641.955978 14393.525288 13519.536240 8269.279085 6165.134156 5158.060368 3526.524523 31552.456583 28040.602678 26679.922633 22323.881605 20527.537612 14555.979324 13632.223965 7352.372784 5893.213970 6322.930942 2303.835644 31021.536905 27385.683018 26612.008157 22069.663728 20390.129252 14841.410164 13242.100661 8997.543662 6031.238857 6658.720365 3800.042300 30780.905950 27437.759854 26016.773343 22477.291331 19677.733077 15818.710788 11949.589122 11036.873539 4065.429255 8249.907967 590.501014 30962.380708 27673.212918 25500.654472 22809.227511 18953.804197 16943.063889 11072.081778 12078.956386 1936.635139 9576.449559 2409.735573 31059.857018 27468.200431 25154.292131 22966.740378 18328.177974 17451.867344 11027.800342 12122.237705 2527.439816 8757.832545 2927.404348 30553.105291 26849.009848 24964.895287 23009.750698 18038.296734 17430.410521 11442.534188 11807.313097 4817.628961 5738.262019 3422.626507 29839.739712 26363.069342 24850.508232 22944.250186 18168.358643 17360.388538 12082.256232 11005.641536 6263.688225 2984.260756 4851.417417 30504.623236 26129.786661 24791.703364 22735.021774 18317.039089 17293.186638 12819.516594 10610.046072 7207.171783 2011.536865 7384.214245 30764.624384 26092.124546 25046.735262 22790.365148 18690.245652 17280.924064 13277.167012 10321.950301 8456.675949 2086.590194 10085.430477 30542.177040 25722.355696 24950.337086 22717.421085 19074.491780 17508.222846 13719.354562 10450.551267 9420.156316 2160.275747 12338.693628 29717.158086 25609.599630 24985.528886 22800.919521 19208.017693 17455.485711 13983.957796 10890.089494 9770.880854 2470.561066 13314.442980 29390.932142 25496.902205 24656.368240 22945.123417 19677.522859 17768.013766 14131.066786 11190.426617 9505.615875 3209.498039 12253.666881 28886.005115 25479.031825 24327.070030 22493.982165 19383.935855 17521.892884 14632.670997 11424.493399 9214.782196 4050.330810 9808.307280 28285.637452 25495.101622 24382.161305 22784.200523 20010.985465 17416.637281 14532.383932 11811.657418 8939.938068 4553.905771 7462.576572 27016.411903 25115.578315 23273.786845 21934.640749 19187.297794 17942.856290 14771.064338 11453.566636 8876.233242 4779.251675 5991.757155 26986.575276 25102.413800 23853.306795 22392.190459 19333.510871 16127.123346 15215.939268 11302.624771 8589.302579 5051.772893 5094.029142 24733.161152 25207.030184 23441.195557 21557.540462 20406.646901 16404.864354 14309.214837 11481.898545 8236.037981 5529.808218 4366.533136 26079.530001 23700.060356 22959.750910 20278.765320 18878.643309 15754.807940 13594.446181 11267.028125 8288.374765 5103.676444 4181.908630 24910.403498 23831.543230 23006.925655 18809.612736 17933.073194 15515.707251 13204.441030 9594.123269 8365.111664 4521.569368 3977.630914 29494.046019 21649.292588 21718.121444 18807.507775 16373.145472 14494.851247 13043.187093 9464.421301 7299.352380 4701.177480 3262.276398 32103.681183 21501.264683 21547.865418 16531.373581 16978.238711 12682.373231 10965.406128 9413.418909 6488.061870 4283.490687 2794.368895 25883.639873 15887.720347 19533.188297 19441.647188 14501.547263 13737.167833 10125.890364 8011.413937 6230.701821 3727.974851 2650.111110 10505.686814 12809.830287 12196.556788 18433.655958 13897.668573 13658.193054 10069.404133 7991.899461 5610.937564 3766.143532 2211.194318 10550.459758 7447.648788 13027.919650 17583.146202 13059.477087 12585.916139 9544.087349 8006.347783 4776.607889 3938.573478 1982.063230 20066.423049 16637.929230 14934.985020 16055.626719 13287.261614 11314.496095 9527.477271 7890.687626 5341.611238 3070.169207 2303.420581 26929.050008 21890.607798 17874.824619 14405.641319 12426.283632 11859.110521 8868.979810 6986.107906 5687.842925 3042.136130 2301.090525 31075.382591 18352.553833 11595.262085 14046.133405 13390.812347 10928.612585 9581.482702 6982.267889 4755.607856 3346.597660 1949.306350 22217.586450 5391.926669 6633.041638 8923.697343 13503.380514 9913.355157 9709.784828 6783.604611 4834.294245 3249.097490 1905.321802 13240.678705 7283.289112 7429.589984 9664.354909 12565.803933 8681.672026 8645.258665 6258.559726 4843.103490 2696.976991 2054.947786 12737.801728 12524.083260 11231.432928 10765.987017 10662.835521 9134.859133 7904.549599 6281.772042 4500.663532 2911.111448 1657.740861 16132.139657 18513.984048 15621.961517 13134.335251 10653.843369 8958.747748 7798.089465 5774.750786 3802.405480 3047.437849 1499.225348 19698.182889 24469.476845 13620.491163 9435.559762 9823.191625 9340.178825 7564.065584 5945.049239 4121.401628 2136.881528 1777.383264 18826.979050 18727.670812 2497.877089 5557.389076 6954.369147 9179.222637 6751.333043 5844.182036 3962.099623 2314.291563 1685.666005 14808.752462 10534.062594 4305.672733 6646.046000 7789.514436 9074.310475 6688.859895 5515.789964 3579.420009 2586.515605 1361.653263 14299.901801 10755.878446 9032.705889 9044.908514 9547.319173 7867.647526 6826.751820 5254.996160 3811.888486 2319.716926 1532.649363 15699.087481 14677.898478 15163.215289 13005.997196 10126.552337 8647.728083 6769.863140 5563.744160 3748.539663 2217.570114 1594.773501 16903.934510 18530.516692 22580.728381 11846.295362 8329.440661 8082.901830 7483.843250 5712.590328 3368.068611 2906.702855 1052.159201 16408.650963 17454.068430 17177.628553 1031.373222 4754.932019 6023.085427 7075.043421 5417.522821 3648.545357 2605.983254 1243.588165 14926.391363 13343.122166 9388.315424 3342.019367 5587.907273 6856.557692 7042.523767 5362.991748 3678.983085 2139.813432 1556.012574 14139.092164 12755.526663 9709.746463 7807.538116 8513.810948 8408.165422 6486.414042 5159.473981 3440.996767 2579.515209 1325.536132 13997.358405 13933.606581 13482.284378 13734.309545 11316.843909 8310.127971 7571.018581 5343.144396 4028.280225 2382.161821 1443.575223 13828.322436 14899.391469 17467.425895 22113.356769 10047.763623 7504.835046 6836.288204 6039.272927 4246.802579 1759.471786 1926.841387 13191.383626 14240.362909 16333.386249 16272.000320 -328.042606 4024.919361 5728.697121 6064.610134 4112.833401 2484.974866 1635.250153 12253.586797 12688.957211 12187.209468 8984.365164 2862.940353 4422.859731 6410.086346 5743.207714 3836.838699 2767.872628 1267.533974 11441.013765 11845.924673 11481.970220 9505.213707 7586.566744 7936.751511 7332.915089 5601.172098 3692.448767 2136.735865 1709.276635 10842.814397 11624.418205 12423.578307 12798.605471 13154.263858 9987.891654 7174.097734 6173.755898 4181.758295 2871.601861 1531.416316 10294.864221 11407.685002 13175.303452 16547.619571 21644.041267 9037.385512 6767.449762 5710.164532 4353.967965 3316.200734 898.137680 9656.909865 10786.332362 12440.890478 15352.914392 16131.676819 -1316.592328 3279.114606 5535.353423 4788.668079 3081.817515 1549.631796 8947.487764 9897.579824 10860.168323 11102.561433 8538.157312 2414.617091 3219.101029 5759.810193 4175.343773 2173.624492 1815.357779 8269.067972 9127.997209 9954.458938 10191.008218 9047.479620 7409.750347 7301.191516 6445.562583 4115.639305 2962.501190 1306.249963 7666.073282 8560.415561 9634.770083 10801.992867 11759.428154 12211.591373 8701.661174 6026.545584 4064.209454 2972.572889 1804.116013 7107.425324 8051.258162 9353.879967 11287.504107 14778.335492 19794.768692 7912.976360 5896.590957 4457.324188 3266.128018 2056.896056 6551.082253 7471.479053 8737.940393 10490.954729 13348.545626 14306.585557 -1396.905108 2907.487375 4297.264087 3903.463336 1734.548817 5991.530113 6829.134783 7889.405543 8973.820273 9416.436043 7327.004652 1853.785631 2842.225460 4206.815891 3442.259862 1181.276830 5451.613763 6210.964861 7138.578711 8053.155025 8601.544200 8394.595460 7002.735574 6051.654105 5750.069245 2884.776506 1500.758761 4948.277968 5659.422655 6560.388723 7596.821876 8740.094489 9947.167862 9999.411173 6693.293019 3857.239716 2689.294043 1914.865279 4478.896886 5153.293269 6047.488402 7199.272098 8808.665948 11505.136328 14538.524651 6184.438137 4174.051699 2975.582386 1807.487289 4032.372063 4656.778226 5492.984355 6576.289012 8035.750263 10348.793635 11416.116734 804.238926 2544.071098 2829.642220 2273.462389 3603.908511 4160.497284 4888.187773 5764.148555 6695.871993 7350.639724 6544.260442 2021.191477 2721.996791 3057.498678 2034.851657 3198.634627 3682.547064 4297.207974 4996.221793 5688.311772 6282.783098 6973.613792 5606.298895 4837.995584 3645.453909 1536.056573 2825.336810 3244.679023 3770.124689 4362.474636 4972.381841 5566.362877 6302.302158 5740.185017 3363.156336 3388.649921 1498.953074 2489.862276 2857.154250 3317.783517 3844.524836 4412.968712 5025.144293 5847.660744 6046.954920 5210.518577 2844.270618 1459.190816 2193.187892 2519.450553 2931.278402 3408.326079 3930.265230 4480.328536 5089.110965 5393.213860 4493.152988 2956.867634 1438.884725 1932.711184 2226.048213 2599.012168 3034.384815 3508.675414 3982.332005 4388.893073 4589.977866 3762.634637 2447.638851 1713.641522 1704.066276 1970.115979 2311.246518 2713.659521 3156.413379 3601.589125 3972.831052 4144.656731 3571.492030 3337.133010 1978.647788 1502.381187 1744.706933 2058.562024 2435.130052 2863.328298 3328.376164 3804.504546 4207.509499 3986.527893 3533.850395 1708.341732 1323.125928 1543.393698 1831.274329 2182.498822 2596.332133 3085.908380 3711.502152 4624.195924 5497.829105 3169.641932 1410.192472 1162.815678 1361.343780 1621.811214 1941.449540 2321.659296 2779.240273 3380.720659 4411.421565 5299.219716 2547.040595 1407.832410 1019.473456 1196.307957 1427.562185 1708.824150 2035.215755 2400.154592 2777.445925 3080.170057 2806.918849 1342.793755 1749.329728 892.620670 1048.588509 1250.887617 1492.758834 1763.113963 2040.233718 2272.883690 2354.071015 2161.625752 1989.164852 1910.675603 782.816479 919.949929 1096.189078 1303.682323 1529.820257 1753.553810 1940.193656 2044.267989 2035.327479 2040.767030 2056.830545 691.070914 812.384990 967.049438 1147.489826 1342.730898 1537.915982 1716.269635 1867.984471 2003.439680 2070.650581 1987.574649 618.497610 727.543368 865.409262 1025.490457 1198.824017 1375.031921 1546.304664 1717.953249 1946.842502 2189.421322 2263.007489 566.609014 666.903007 792.159077 937.311428 1094.222468 1253.397374 1405.944722 1545.148446 1671.082898 1698.039708 1304.855605 34496.018573 32647.544056 29091.569348 27456.144991 24511.091693 21745.444095 19899.573230 17712.611650 14234.720379 11360.372319 7855.207507 5895.789392 -1139.828843 -8236.208703 39483.999167 35919.741509 33993.449885 31176.454414 29093.051591 26171.444462 23806.125523 20782.245683 17717.624502 14477.602893 13102.944313 4629.692965 5693.755352 1750.852177 37870.718243 35046.599900 32546.791788 29255.924648 26832.777550 23923.909262 21300.401549 18795.499250 16997.836534 12487.238463 11405.010963 8135.085304 3035.879344 3069.190188 32591.804430 30788.639095 29801.346392 28179.219412 26195.508701 24587.523811 23002.457779 20369.152870 18331.455901 16426.447527 12338.691827 7913.739664 4181.420597 3131.044516 33847.513934 31428.149331 29390.814723 26770.186672 25181.575366 23246.764173 21088.555236 19013.902763 16534.138187 13192.433795 11271.475482 8409.264107 4421.491244 2762.462267 28633.701599 30017.804431 27315.589981 26550.580148 23982.915352 21020.309714 19242.336421 17476.379346 16076.143577 14184.616615 11361.006749 7536.370094 4203.654458 2689.081719 34543.392171 33763.860053 30623.835023 24255.585782 21517.911042 20322.811566 18819.919961 16922.496545 14561.248174 11936.868210 9889.147961 7440.590630 3889.748398 2391.574891 24805.502547 27840.438575 20692.025396 20176.835604 21940.507379 18957.572083 16192.697958 14646.346148 13665.532034 11774.576250 9401.318931 6570.714669 3211.591307 2090.549794 28376.491671 20181.064894 18510.011105 21913.670390 19432.551104 16251.604098 15135.282076 14493.319289 12766.702502 10321.539961 8630.052427 6438.249560 3222.768474 2095.282346 24962.018261 18667.334262 15743.787557 19228.524803 17301.774853 15287.679934 14526.160840 13259.206987 10732.731191 9775.561580 8250.117293 5426.985536 2857.276997 2239.744990 15440.665139 16804.490932 15134.061090 13558.860825 11963.850934 11958.991514 11194.801616 9689.224443 8113.111340 8608.195192 7300.237456 4932.166695 2832.133822 2354.165057 12002.517325 7913.684438 16180.782616 13219.482662 10848.655428 7565.713212 6762.741833 7164.680343 7601.080718 8080.899786 6188.098640 3435.800723 1738.497500 2305.238832 12505.939212 10227.051978 6341.878005 9558.210855 12226.967697 11992.261460 8864.428270 7716.030248 7749.239090 7186.769583 6328.094165 -655.164054 1755.332045 2236.523797 -1714.549404 5041.144478 -1472.311768 6737.711830 -531.568441 248.563068 10832.633003 9903.795783 -87.774937 11081.110219 8900.626247 2326.923772 4517.915372 2222.043862 -2213.347863 -8130.634110 5257.511500 3926.915579 -8124.869845 2560.142257 1766.742383 3540.447851 -2230.119727 5574.714352 7242.533950 7244.796354 3017.494873 3584.431512
</DataArray>
<DataArray type="Float64" Name="Velocity" NumberOfComponents="3" format="ascii">