<VTKFile type="PolyData">
<PolyData>
<Piece NumberOfPoints="1945" NumberOfVerts="1945" NumberOfLines="0" NumberOfStrips="0" NumberOfPolys="0">
<PointData>
<DataArray type="Float64" Name="Pressure" format="ascii">
 11060.179135 11783.986503 13145.533394 15603.348035 15477.713991 17491.770503 15390.075930 15847.955061 16007.949901 17898.692935 14684.105499 16304.028263 13836.322464 17231.391009 13427.178932 15422.265681 13863.631742 15858.371402 15675.777693 17205.962714 16965.111450 18994.825978 16867.569020 18722.322735 15804.631854 18080.678728 14852.847279 17030.851775 15507.721024 17207.974364 16928.130864 18075.928241 18607.119928 19397.898827 18668.466793 19224.545557 18667.661448 18103.337932 20633.034076 20643.195290 20316.042939 20031.367195 21303.796121 21288.932267 21954.839267 22152.426764 19241.180950 19163.993032 19324.784934 19915.803180 22206.222268 23232.922714 23541.969628 24399.731815 23476.367577 25397.798850 22056.482946 23606.579603 22464.394685 24226.039512 23675.322994 25822.496992 23325.651299 23913.523839 25833.647646 26219.077263 28934.279506 29414.070934 30153.661401 30004.253090 29568.150533 28640.155158 29165.865421 29266.607173 28924.355506 28692.959704 29425.126571 28882.945066 30611.304397 30032.689802 31005.493659 29378.850409 31356.614999 29651.181703 31995.794592 29961.092912 36295.755479 33121.851321 37010.434312 35265.461760 35385.579865 31333.491419 34773.017120 32477.827056 31573.813859 28216.685982 35081.013773 29020.649774 44926.847123 44317.803195 53170.260963 61126.830210 48153.829767 44989.937782 38625.675917 29652.089975 36699.129016 32188.920726 39966.953603 43156.338814 41451.772090 45692.154208 40274.245351 41601.967497 38658.524387 39220.477615 37161.306600 37592.408408 35813.771291 36441.086929 34281.029664 35704.241211 31859.812624 33130.510337 28982.060515 29516.160429 26648.928392 27114.943066 25075.980610 25784.599813 23868.640764 24537.731534 22780.265681 23258.617266 21805.713133 22111.039535 20990.221159 21267.875063 20278.964693 20631.542643 19548.549925 19945.421869 18725.283791 19082.944193 17834.965255 18125.443939 16945.108862 17208.183053 16089.486257 16364.344580 15256.898557 15538.349314 14429.218484 14684.113469 13610.525267 13816.207960 12821.227165 12982.633806 12075.170098 12210.801925 11368.804295 11490.386272 10689.307856 10796.544351 10027.639326 10116.378914 9383.164752 9453.582514 8759.417667 8816.473464 8158.637617 8207.791676 7580.363747 7624.482029 7023.393325 7062.848244 6487.927304 6522.254603 5976.101064 6005.246468 5491.163225 5515.787720 5036.305174 5057.563602 4613.802940 4633.007875 4224.655825 4242.959062 3868.688257 3886.817898 3545.004368 3563.137823 3252.604914 3270.447366 2990.921039 3007.953594 2760.071265 2775.834301 2560.798372 2575.079515 2394.187987 2407.074825 2261.325047 2273.139252 2163.169289 2173.735552 2100.979259 2109.906354 2074.812954 2083.528581 11561.083954 10134.539949 7556.274755 5337.191449 4831.999174 3659.482744 1693.754189 -1396.422379 -433.801637 1189.597036 -2136.487521 -4351.019364 -2384.110515 -144.543115 -2.387663 -4102.846111 -5145.356679 -4127.622539 -5840.949334 -9278.785664 -9243.569454 -8666.771405 -8352.255197 -7936.149351 -7436.031450 -6882.349073 -6298.555971 -5703.202448 -5111.651470 -4536.679998 -3988.573611 -3475.113125 -3001.640285 -2571.252156 -2185.101364 -1842.754077 -1542.559144 -1281.994201 -1057.968600 -867.074515 -705.785530 -570.606679 -458.182233 -365.368279 -289.276959 -227.298657 -177.107786 -136.658360 -104.183663 -78.267939 -58.437712 15577.862435 13719.776825 10840.329142 7924.321537 7043.598210 4739.377644 1260.017554 -3235.125310 -609.864768 2531.725553 -1967.709861 -5166.393118 -2314.479795 165.670557 -644.002884 -5548.685540 -5502.619311 -3277.217965 -4756.756548 -9207.934012 -9492.338393 -8568.942446 -8312.804461 -7915.262902 -7424.354391 -6876.414494 -6296.770220 -5704.668265 -5115.724399 -4542.796157 -3996.198393 -3483.742558 -3010.819321 -2580.591891 -2194.288280 -1851.550731 -1550.798405 -1289.569750 -1064.823960 -873.192184 -711.177109 -575.304405 -462.232019 -368.824170 -292.196837 -229.740890 -179.128000 -138.302149 -105.449854 -78.883216 -56.456241 2121.251920 2130.627037 2136.210406 2130.616209 2106.584546 2056.446866 1972.580699 1847.383689 1665.355626 1368.712493 975.871509 875.942569 901.108134 843.920711 772.432585 698.429787 624.391062 552.223864 483.445347 419.182191 360.179647 306.840146 259.280278 217.394080 180.914066 149.464950 122.607882 99.874906 80.794490 64.909506 51.789186 41.036426 32.291651 25.234187 19.581858 15.089387 11.545994 8.772510 6.618234 4.957707 3.687534 2.723347 1.996974 1.453857 1.050743 0.753650 0.536106 0.377645 0.262509 0.178363 0.114234 2095.512376 2104.983876 2108.727192 2101.027978 2074.759779 2022.093984 1934.619854 1802.773670 1616.255416 1376.821996 1135.683934 998.674688 917.697404 844.841872 772.243967 698.374941 624.658261 552.793746 484.253912 420.157180 361.252927 307.953185 260.386291 218.458152 181.912067 150.381856 123.435920 100.611788 81.441876 65.471750 52.272353 41.447551 32.638194 25.523642 19.821487 15.286036 11.705977 8.901547 6.721422 5.039521 3.751851 2.773480 2.035719 1.483546 1.073295 0.770626 0.548764 0.386997 0.269442 0.184205 0.123947 -45.666959 -39.991488 -42.464122 -37.351602 -33.886324 -31.317961 -24.546930 -24.318984 -18.162826 -18.253462 -13.428000 -13.542950 -9.878799 -9.974474 -7.225237 -7.299549 -5.252592 -5.309195 -3.795409 -3.838106 -2.725919 -2.757883 -1.946022 -1.969782 -1.380943 -1.398482 -0.974117 -0.986974 -0.683076 -0.692437 -0.476173 -0.482943 -0.330002 -0.334865 -0.227374 -0.230845 -0.155760 -0.158221 -0.106092 -0.107825 -0.071852 -0.073065 -0.048389 -0.049232 -0.032406 -0.032989 -0.021583 -0.021982 -0.014295 -0.014568 -0.009417 -0.009602 -0.006170 -0.006295 -0.004021 -0.004105 -0.002607 -0.002663 -0.001681 -0.001718 -0.001079 -0.001103 -0.000688 -0.000704 -0.000437 -0.000448 -0.000276 -0.000283 -0.000174 -0.000178 -0.000109 -0.000111 -0.000068 -0.000069 -0.000042 -0.000043 -0.000026 -0.000027 -0.000016 -0.000016 -0.000010 -0.000010 -0.000006 -0.000006 -0.000004 -0.000004 -0.000002 -0.000002 -0.000001 -0.000001 -0.000001 -0.000001 -0.000000 -0.000000 -0.000000 -0.000000 -0.000000 -0.000000 -0.000000 -0.000000 -0.000000 -0.000000 -0.000000 -0.000000 -0.000000 -0.000000 -0.000000 -0.000000 -0.000000 -0.000000 -0.000000 -0.000000 -0.000000 -0.000000 -0.000000 -0.000000 -0.000000 -0.000000 -0.000000 -0.000000 -0.000000 -0.000000 -0.000000 -0.000000 -0.000000 -0.000000 -0.000000 -0.000000 -0.000000 -0.000000 -0.000000 -0.000000 -0.000000 -0.000000 -0.000000 -0.000000 -0.000000 -0.000000 -0.000000 -0.000000 -0.000000 -0.000000 0.000000 0.000000 0.000000 0.000000 0.000000 0.000000 0.000000 0.000000 0.000000 0.000000 0.000000 0.000000 0.000000 0.000000 0.000000 0.000000 0.000000 0.000000 0.000000 0.000000 0.000000 0.000000 0.000001 0.000001 0.000002 0.000002 0.000003 0.000003 0.000006 0.000006 0.000012 0.000012 0.000022 0.000022 0.000039 0.000040 0.000071 0.000073 0.000126 0.000129 0.000222 0.000227 0.000386 0.000395 0.000663 0.000678 0.001125 0.001150 0.001889 0.001929 0.003135 0.003198 0.005143 0.005242 0.008342 0.008493 0.013388 0.013598 0.021294 0.021482 0.033792 0.033257 0.055290 0.048763 0.077490 0.063949 0.087820 0.072766 16275.843431 13830.241840 15273.654989 14898.735308 13925.927332 14758.706830 14692.103984 12191.433170 12013.221903 13686.467062 9670.146134 16752.173414 13995.345488 15454.440838 15747.879295 10299.700310 11232.835382 13004.184260 9166.507992 9392.149515 11958.908862 13766.376052 18112.066927 16316.847372 16402.388240 16086.108785 17279.175825 11280.949713 11416.919127 10217.981683 5034.969927 9226.875611 14324.540275 17682.379435 13997.641949 17689.576879 15378.647769 15169.167348 16014.136809 14978.287947 9834.945949 16674.606493 12838.726136 10535.935567 18812.953865 14613.101343 17130.828554 16063.986411 15953.821195 16103.306235 12971.613209 12898.685206 8852.649476 10143.182721 11510.670713 18074.835471 17301.481596 16894.565157 16652.168354 16014.732796 15048.302237 15538.880503 13875.218150 11672.806473 10841.059643 12781.268044 15206.025249 16330.265925 16410.997421 18349.612160 13645.214026 15499.335605 14954.993041 18065.143333 15323.860883 17898.068024 13968.887221 21014.853099 17815.594819 18810.028948 18650.220385 19634.217217 12923.739903 17331.662120 15493.953766 14449.838038 16836.723264 13014.132013 18725.569184 20369.625361 20908.536397 15462.179244 21757.512993 20009.055418 16501.887960 20361.685156 15948.451547 14409.852948 15321.184806 20663.067146 25692.146485 21941.299481 20469.640982 18470.627276 19839.082165 17924.541982 17530.801244 13772.302380 14522.421002 12038.845722 24673.180413 22833.542189 21597.760477 16847.554828 21835.200996 20008.756603 22064.606000 14922.171594 13826.654599 11412.720449 9152.589706 25816.808062 21210.454800 25102.936722 26067.380192 19523.274698 17150.692402 14685.872916 17339.636875 14925.648635 18399.506277 15988.719581 24909.658079 21117.951008 22560.811938 21215.272208 20804.665843 18453.115186 17948.121237 15200.321783 14710.683273 18062.250583 13053.851847 23830.347870 24480.863641 23758.702007 24698.416453 24385.878314 20605.701545 21453.948915 17939.469017 19749.199132 8378.453452 5555.834879 29053.185568 23548.758704 25820.320975 21361.891381 22559.277424 23282.255788 17438.529915 14694.383905 10116.624602 8957.523117 5596.830622 27580.511988 25012.983902 23812.843640 21800.374172 19469.409577 18711.907483 15905.113574 14227.996952 5957.364117 1136.982751 3943.158521 27253.475719 27553.554814 21247.837020 23769.586274 22971.220452 20427.898299 12299.100613 20195.606090 1405.924129 903.963386 1284.372442 28040.378272 25448.681745 24612.809704 24666.700853 13579.782856 9447.169967 14861.202951 6642.609107 5857.212247 1556.824551 1416.305950 27138.375300 24765.224265 26012.627619 23002.327788 17102.795129 21772.673668 10970.680864 8121.613433 7607.205082 3085.067026 5206.168373 26851.432142 27229.838669 25791.769730 23466.834092 19083.954588 16777.539557 11459.167853 4205.957257 4727.134625 4305.913389 1658.089280 27617.350679 28208.742162 26174.517905 21956.856461 18537.196109 14772.459486 10601.818933 2707.920574 729.333705 3482.774583 1524.523884 27814.529598 28312.473441 25768.937765 23167.260509 19717.233233 8889.311328 5840.431748 4619.171715 13061.392568 10648.863369 2049.198084 28817.679166 29093.469906 27353.765290 22551.553918 16470.753535 16051.733409 13613.516753 6591.400113 3200.006179 10396.967678 1120.309284 29288.593940 25995.753733 25040.550178 18798.053847 19386.477265 11454.381373 11667.552744 8375.604420 4977.209221 2058.521220 1101.642998 31115.457113 26310.421706 26523.299788 22001.259660 18391.654939 15504.592313 8537.813875 4806.463634 4292.151044 4655.709623 2521.888816 31868.814372 29525.458891 24349.405330 24740.302911 23926.421457 9682.552139 14906.222375 8262.356270 10241.766629 2530.388414 2432.783032 26765.199584 26482.652907 21958.180106 20909.858299 19994.595839 13386.611638 8864.946592 7965.894198 7291.372354 9009.529300 4054.256364 29087.189600 27398.222840 25904.622161 21139.023140 16854.657212 22181.863344 16240.038262 11540.240276 8830.947614 4872.795412 4491.489281 30746.331974 28838.974909 20145.171859 24885.231122 21644.731245 14821.438173 13929.067273 11222.073435 12889.177621 5105.589747 5170.246502 27554.119581 29343.028220 27921.930113 20169.291761 21295.832071 15253.620622 10599.143176 7440.449462 10201.835993 5705.572349 6384.591101 28591.613809 24327.932818 22334.418738 25095.784588 19800.327365 15782.946944 15465.370240 7979.515408 6981.288769 3079.342542 2112.442053 32176.886486 26666.975204 23448.674756 23711.181665 20207.526422 14580.109563 14775.387959 12232.486215 725.468186 5466.177414 2888.584341 25716.161733 24620.225661 28615.192317 20910.639164 18478.782049 20477.447592 13463.988166 14176.682816 4769.795172 10809.050221 2884.691892 29635.436247 25932.750629 23902.251994 18922.060095 19134.030837 14966.268859 17492.681384 9481.746443 844.218509 6313.483980 -2937.462985 28538.401507 27288.639212 21521.204865 21994.282388 21205.418179 19148.262481 18789.014605 11520.076463 9380.208806 7119.610288 480.964712 31131.702114 27909.253589 26748.231359 22674.690444 15808.119728 17938.404652 13836.807269 16224.713031 4522.472331 9030.727740 7689.332382 28541.473311 26820.494909 22385.087804 20911.663889 16112.343522 12639.213551 17083.679748 8588.204091 10873.866513 6934.543816 2973.532908 40454.682597 36569.442502 20999.240851 20875.824453 19297.330377 18630.672246 11272.880947 11693.841990 8098.773438 4570.235889 3117.836935 27046.831285 25050.312420 29949.787533 24105.992562 20774.399995 16311.257537 9961.220894 8266.361667 10148.848446 -1145.854809 3746.428837 30506.173972 27793.763689 29806.268127 22525.720841 21282.248972 16384.160557 14357.103164 6501.685454 8840.149326 2450.045194 1130.446409 14711.953519 22589.776021 27745.804836 21773.456612 17228.809965 18672.005872 13772.238956 12652.966656 4471.288842 6486.924774 1252.990578 28381.863823 24643.315608 8233.403974 24461.665849 21142.945394 16606.469907 11822.994732 9502.773169 9569.713211 7148.676214 4754.263207 24423.800208 16561.429076 23463.679573 26745.399147 22611.765690 17155.160584 14683.129610 11139.088861 7180.492557 628.571808 1687.485709 6563.025491 12708.060173 24323.590160 19838.470182 24006.256301 17213.294745 13872.174480 11586.449256 10559.074611 509.715665 2283.659777 18754.260673 16845.488489 25641.190963 26964.390706 19097.993394 18777.899974 13976.086791 8418.265901 5720.787215 6051.590932 -2763.216847 9485.900968 16630.391596 14514.082053 22281.604757 19000.725044 16914.780205 16590.796460 11106.885174 9313.106300 5012.043730 2137.910820 5320.618294 122.872644 4598.751852 22548.315077 19796.507376 21606.169666 20353.292785 12877.191157 4363.118522 5449.503625 3517.398238 10703.685055 10450.342921 1496.762277 24599.770130 22248.542940 14120.530127 13378.013480 14272.033976 11283.103901 9678.030827 7008.847802 7093.527595 340.804351 14089.658442 6248.403931 12075.646556 19702.828237 15034.468584 9988.640383 6653.530438 3649.348582 20.534270 -2391.909094 10627.144774 4504.442274 17248.015738 16595.769504 22418.977629 11941.119590 6546.663103 6711.309648 7559.783999 6970.599340 4447.672033 -3818.407989 7206.630248 13067.511531 17390.483751 16349.496381 15368.294780 8887.624681 8519.842113 7834.112551 3733.440129 11710.309576 6353.659150 12658.777119 11359.404458 19946.970617 18340.271379 13640.128982 9798.924253 8750.323506 4394.201764 3763.495770 34345.429093 7833.999639 6305.741922 13921.885863 13907.416373 15045.853802 15022.176026 10327.463165 5294.497303 7006.708360 3543.044810 36512.733052 -2927.079358 12046.339711 16819.042888 15824.409115 17546.209633 12906.095832 8752.826359 5943.189237 4480.343381 9284.242227 31255.101536 9043.315155 10548.610927 10577.052770 3153.436238 15491.769182 13970.784425 11788.344026 13110.587998 6549.672589 203.583782 35055.549813 15780.898498 4285.757233 11408.387500 20078.302659 18025.901443 16473.859373 11130.492510 7958.970483 9588.538970 11349.383844 34715.705560 17021.231707 23221.938242 11235.584256 15620.235220 15966.231329 14314.692429 12524.478445 6599.882655 4476.536479 7693.192593 35674.680016 28919.081355 8552.118896 15993.388599 9130.960813 17310.202164 14068.688490 9504.903767 9861.215500 7825.664773 5857.604834 39434.239737 40470.227944 12318.487156 14.810554 22492.152643 17933.055636 17185.161949 14071.440973 9100.987487 5212.910073 6496.047155 35555.877203 31506.110705 -5026.182379 2242.393145 4154.330413 12641.383451 13435.348537 12032.401715 9760.617619 10833.608980 -2587.795076 28729.652494 21236.921651 3363.016848 5168.067076 5097.975513 12168.843480 10441.649269 15958.152195 9919.941937 3836.682608 9087.322099 27501.167238 28340.528737 18932.823494 15935.624385 18437.065753 20010.089579 16921.470261 15006.005274 13343.418375 7977.205327 -8704.504205 27401.386136 31232.217323 22389.916552 12951.425690 11699.444260 8509.622243 14786.258740 17309.297919 12917.994898 7000.417578 6332.903410 25695.413405 27348.791901 27755.498380 18936.659488 8474.665707 11341.224940 14626.312831 14611.657697 11426.261756 9802.227842 10874.824167 24139.256401 25647.697631 23705.150019 2474.648663 7977.224292 2938.745230 12182.571986 20894.466809 9444.984660 8164.343937 5814.292419 22473.444507 21996.757417 18174.421704 5224.732810 5952.594929 11912.091721 13273.912754 18972.855466 11020.965964 15120.017631 9766.616930 21725.774932 22009.368115 20901.840675 15707.978512 13326.369395 11069.715035 18245.096020 12068.656723 16564.182716 10696.590492 5530.033901 21479.435707 23090.641400 26523.213952 28928.418053 21946.620480 7798.213095 17409.488558 11722.729068 16568.016514 13826.917188 5025.415648 20974.768948 23099.859922 27809.918883 32119.282316 10424.289352 3092.914473 8559.704114 16081.180390 11434.260192 10447.416469 3406.454115 19948.150330 21440.258307 24035.260599 23031.618878 -2476.879328 8257.693502 2830.061703 13520.115297 13965.378386 13357.628655 13005.144038 18745.583949 19443.458566 19483.760891 16299.170342 3595.451018 6940.571015 5087.285537 18775.556396 13259.472053 9751.030561 15628.197672 17767.020380 18452.019155 19008.166992 18700.810691 15582.617706 9483.336205 13055.614162 18069.052962 12150.276205 12437.449908 10492.529507 17003.825105 18069.148827 19920.771166 23884.201422 26246.228466 18415.171917 11324.419115 13765.254963 14233.289855 14276.983375 14053.925966 16222.397702 17464.566248 19824.339389 24704.569996 30413.991542 21377.714280 5392.454370 16748.665746 10616.281080 8928.697861 4097.475658 15289.472865 16325.820147 18114.849812 21652.058637 21965.576806 -5113.891691 2940.054277 6908.887174 5376.001869 18813.708502 10793.589224 14271.935580 14916.907903 15580.744589 15824.076155 13682.632225 3141.633277 4257.654410 2785.033642 8018.970433 12782.718985 13258.794600 13320.381652 13729.552694 13979.014685 13507.996661 11933.406520 9509.151445 8973.339247 7731.523432 9034.225729 10827.634129 5037.394572 12498.960102 12887.026021 13342.259564 13810.471175 14217.617070 16079.144293 9244.702053 10319.485257 7864.194166 7550.305832 10661.227064 11761.902458 12191.376687 12916.727308 14379.883440 17772.585617 24456.473405 17945.157600 20252.415724 9642.521842 5235.663240 3989.271084 11040.502623 11441.700406 12139.392821 13482.493468 16321.970575 16085.781882 -7967.026502 2469.253020 8630.569095 5016.192887 5559.845191 10313.388246 10615.053497 11055.970212 11592.215478 11973.937092 10943.480676 2178.019593 2386.857836 3518.141885 8372.595421 8256.684636 9603.637698 9810.699548 10055.732178 10223.896317 10041.106065 9258.349256 5957.889823 6477.308157 2772.232792 5191.480514 2628.662848 8935.659974 9095.615789 9290.600491 9501.288327 9718.339518 9967.982916 8932.540742 6516.509973 6598.557930 6223.151224 7759.917187 8311.507982 8458.648127 8670.832301 9012.056494 9690.632637 11279.909879 12210.777454 5018.585265 5216.585287 5033.480629 895.322167 7718.652141 7857.737564 8069.999732 8420.541917 9056.570418 10351.749131 9723.659393 -1343.526747 4747.238135 6175.906345 5326.876296 7146.421708 7268.050817 7444.289219 7693.689678 7997.490230 8219.275037 7450.494874 3014.489452 3062.869987 2592.879563 5047.590853 6593.128073 6690.923336 6820.006768 6973.881983 7122.286418 7246.005740 7227.258072 4292.609404 4019.500740 2567.971317 3500.166648 6063.351354 6138.019086 6227.407611 6319.168219 6390.936724 6414.864210 6406.067895 5518.399611 2187.135292 1734.598191 3288.485169 5563.098813 5619.319384 5680.188252 5732.899208 5764.902743 5779.685246 5904.470606 4760.178373 3116.566862 1563.050194 3854.730258 5097.140467 5140.846243 5183.315523 5209.851593 5200.348047 5121.582921 4976.772664 4196.525845 2038.206472 1827.073290 3142.244745 4668.175152 4705.520382 4739.807515 4755.445395 4725.678815 4595.100930 4260.567440 3588.142066 2158.412473 2438.720955 3104.463094 4276.605074 4313.034870 4348.986613 4372.481561 4363.651808 4286.012606 4075.827825 3673.821119 2949.024589 2530.805694 2621.199306 3920.730199 3959.572102 4003.324582 4047.015273 4086.475090 4119.914695 4142.107380 4026.059745 3679.650070 3398.227549 1960.698885 3597.641054 3639.156273 3690.483798 3752.728371 3835.537666 3972.688604 4267.978397 4957.235931 5687.997794 1798.730307 2023.947977 3304.620760 3346.462638 3399.715469 3466.855922 3558.829943 3709.046973 4009.972714 4766.427615 5295.606736 1471.693071 1042.988857 3040.340488 3079.236902 3127.410934 3184.286338 3251.167260 3329.599430 3398.655939 3358.677897 2683.687938 209.384889 1379.459142 2805.220231 2838.713766 2877.347821 2916.575687 2948.536440 2954.689124 2883.295688 2614.370769 1987.383180 898.515048 947.331251 2600.944618 2628.174188 2656.425052 2678.880950 2684.627333 2654.901378 2559.755517 2371.443236 2153.956858 1870.322963 2007.394123 2429.655884 2451.137095 2470.500873 2480.529760 2471.244215 2429.657114 2342.851304 2207.852226 2042.742459 1701.614373 1932.524291 2293.380612 2310.389431 2323.013251 2324.660475 2307.084216 2261.358566 2181.312873 2070.754493 1968.641888 1760.482723 1618.720197 2194.100359 2207.978174 2215.545737 2211.524234 2188.667080 2139.462446 2058.016956 1941.626089 1798.251937 1585.674774 1144.210800 4398.324685 11763.687295 14720.756479 8359.090726 8892.088323 13151.050537 10484.435095 8816.157567 6790.557619 3580.225011 3468.157076 2060.323799 -167.725996 -9942.368643 10653.386106 2519.040868 8438.792624 7585.828834 4191.459266 9134.044372 9729.624105 4925.457620 5874.465474 2213.434257 2134.775824 1919.712271 1928.412372 -2301.813459 6769.466185 11462.539228 10403.021340 6122.953865 6759.660615 5951.360454 4786.796617 3868.179025 9456.104265 1796.426573 640.709772 4419.280308 2204.458607 1537.576228 13249.719802 5497.474066 9102.260241 12522.713932 8997.404916 9591.217696 7982.628231 3677.443713 1941.189582 3756.532823 7001.643244 3691.909783 1751.467063 2337.432680 14394.608898 12723.413956 11010.871354 7349.884029 8404.437756 11178.798862 7383.335299 1334.372754 4130.406040 2477.800203 3286.933651 5431.160809 1368.211274 1915.115447 12437.037263 11774.566436 9559.944121 11291.294469 11384.938065 8128.137026 10565.594768 9509.317150 5254.711284 6457.346158 5451.267192 2107.168202 1913.055144 2711.400200 15885.814029 9463.927361 14633.017711 10128.402210 6147.424038 7813.024285 13748.397141 9322.665719 7657.904279 2461.448276 5122.160363 5343.534323 5368.125339 3639.944945 14820.461387 14543.136534 13202.994335 12193.449011 7451.995777 12315.390049 9239.032702 8987.732509 5341.153242 5258.736328 3423.747657 9490.574213 6068.967773 6801.241659 16185.204040 17052.694909 7095.857827 8856.438239 10869.747474 9967.882299 11530.571013 4582.853836 5093.597585 10253.064023 8770.549030 5294.348968 6679.972945 4384.113287 10097.676515 12327.616074 12849.259624 9533.718287 12632.383305 4991.811322 10576.708261 8611.117368 9244.387568 6537.853257 8686.316464 7001.653069 1278.813924 4730.378233 8717.010837 11489.896214 14489.605997 7911.738272 6880.973205 9378.328845 11237.905652 6932.480951 6543.653533 6826.546417 6856.120692 7503.480321 2412.118126 1207.006300 13752.089956 6032.012738 11617.969365 17440.785209 3734.781774 6646.678143 6341.186388 9151.992724 8234.994803 7601.375566 10553.588360 5927.145200 5666.191440 -233.328166 7832.617076 9022.898229 1963.737166 10528.493829 5747.099844 2895.972816 12258.355491 8203.870875 14872.970834 12861.844025 6622.610059 4704.838173 8283.748790 5076.901328 1692.746747 4294.266999 2218.691830 3486.866329 2775.224111 3015.653729 1908.846995 2477.765064 1201.507915 1896.639089 3996.823659 5924.937975 3943.331240 3857.488115 4488.073096 7026.529875 2590.106527 4466.960917 4758.796611 3635.023002 4421.070912 2055.856762 2645.746729 2268.809201 2405.272378 3337.746696 1882.134534 3995.516231
</DataArray>
<DataArray type="Float64" Name="Velocity" NumberOfComponents="3" format="ascii">