<VTKFile type="PolyData">
<PolyData>
<Piece NumberOfPoints="1945" NumberOfVerts="1945" NumberOfLines="0" NumberOfStrips="0" NumberOfPolys="0">
<PointData>
<DataArray type="Float64" Name="Pressure" format="ascii">
 34080.319096 30946.891424 27979.779974 23479.292103 31545.783314 28179.609571 34948.480252 29867.252328 31880.055641 25473.257628 35512.275240 28567.670518 38308.430066 31352.158351 38392.211484 31326.244122 35666.029953 28648.136428 35980.691116 30656.598937 35381.216139 30968.650950 34504.452021 29723.070393 34491.684408 29958.688774 34170.249058 29709.367463 33818.222406 29588.093009 33020.905035 28485.324160 32334.604060 27688.043237 31707.976809 27196.794521 31316.344527 27353.133604 31085.965632 28006.511397 30785.938947 28620.990892 30431.448858 29229.189282 30018.366080 29811.417777 29583.963606 30429.479850 29147.381016 31198.864224 28645.430117 31927.763137 28020.512118 32814.757841 27235.054471 33600.665631 26280.422839 34121.600086 25186.617869 34245.228480 24002.141370 33961.806197 22778.931611 33388.291481 21552.765181 32678.445284 20346.975935 31932.883527 19180.972569 31183.637721 18080.858544 30444.382058 17087.946935 29737.864436 16218.345958 29040.173594 15501.842887 28397.111228 14979.664619 27874.566896 14658.432481 27472.066965 14537.706102 27199.625083 14598.472534 27023.476176 14805.036333 26869.756887 15121.433368 26784.512989 15492.314126 26536.782105 16001.266714 26195.434789 16657.963002 26277.163582 17992.845405 27099.607860 20551.141949 33225.830919 23948.556379 41210.014953 23413.313492 33244.836467 18073.955508 20793.310071 16338.638513 19484.269671 17749.742140 22502.944845 19940.565660 26449.123949 20403.325343 26184.869567 18773.647344 20924.615917 17314.195884 18294.365026 16776.583305 18313.253774 16573.916555 18825.644102 15916.765819 17997.610413 14699.036224 15968.198084 13455.301189 14321.926986 12504.153777 13496.577216 11725.641013 12933.146338 10886.913964 12069.051008 9944.472658 10904.530500 9029.991509 9836.768534 8239.669598 9033.037864 7550.146131 8371.376793 6892.865150 7686.466370 6242.924143 6952.395875 5627.753704 6259.073915 5076.088971 5667.124641 4585.750824 5156.062890 4136.032895 4676.333534 3713.729610 4208.497907 3321.098830 3768.787769 2964.780053 3375.214011 2644.811645 3026.082418 2354.902513 2707.486397 2089.044732 2409.941326 1845.287217 2133.953501 1624.107792 1883.511062 1425.256574 1659.105513 1246.780258 1457.267835 1086.211882 1274.157488 941.873100 1108.074723 813.040512 959.099125 699.297892 827.473510 599.923022 712.594553 513.704937 612.973314 439.080838 526.625334 374.367508 451.448192 317.976486 385.503465 268.589601 327.246832 225.272146 275.681800 187.488976 230.365238 155.017966 191.256796 127.802410 158.496112 105.804843 132.184051 89.069120 111.806594 78.226355 97.853319 74.356301 93.043704 32049.201069 30018.653087 29468.628710 27994.233406 26773.064810 24573.353216 21564.323499 18704.606561 16124.544528 13670.341299 11444.837128 9583.961010 8090.739228 6870.172944 5822.791940 4853.938067 3933.952988 3220.630467 2532.288827 1652.358272 1123.371669 2251.746167 -454.744699 -4208.271618 -4135.876055 -3630.429081 -3115.969825 -2574.789860 -2026.011631 -1517.601573 -1084.717861 -742.218438 -487.858225 -309.050956 -189.251642 -112.323140 -64.761380 -36.344794 -19.888103 -10.627189 -5.552476 -2.839899 -1.423373 -0.699749 -0.337711 -0.160129 -0.074648 -0.034232 -0.015437 -0.006815 -0.002918 25942.905726 23064.854278 23176.548968 19824.918257 19393.159152 18082.189079 15166.785750 13298.124062 11621.966681 9543.230181 7352.762390 5689.413334 4491.306968 3680.175691 3118.020340 2697.287404 2168.370242 2157.524978 1906.127177 1208.807926 -1092.338593 52.141862 -1239.961079 -6090.549782 -4191.625510 -3536.504094 -3092.786030 -2569.512634 -2032.151060 -1531.417893 -1102.183770 -759.857724 -503.408961 -321.497664 -198.498014 -118.788826 -69.058672 -39.078559 -21.561514 -11.616854 -6.119784 -3.155928 -1.594828 -0.790505 -0.384655 -0.183888 -0.086429 -0.039959 -0.018163 -0.008046 -0.003199 139.616758 207.365382 307.136507 440.337308 605.680488 796.382844 998.403171 1188.153317 1319.763383 1275.621849 965.399274 777.184815 687.859632 543.455657 409.015388 296.046243 206.242862 138.497019 89.798209 56.310773 34.207525 20.162140 11.547275 6.435121 3.494120 1.850787 0.957441 0.484251 0.239701 0.116229 0.055258 0.025778 0.011810 0.005317 0.002354 0.001026 0.000440 0.000186 0.000077 0.000032 0.000013 0.000005 0.000002 0.000001 0.000000 0.000000 0.000000 0.000000 0.000000 0.000000 0.000000 134.936123 201.570455 297.943054 426.362188 585.043051 765.939726 951.996291 1113.451748 1204.273671 1173.918853 1023.637746 859.249644 699.283011 546.927718 413.042045 300.454067 210.564739 142.337537 92.945707 58.722061 35.951267 21.361065 12.335349 6.932506 3.796608 2.028572 1.058679 0.540226 0.269808 0.132009 0.063328 0.029812 0.013782 0.006262 0.002798 0.001230 0.000532 0.000227 0.000095 0.000040 0.000016 0.000007 0.000003 0.000001 0.000000 0.000000 0.000000 0.000000 0.000000 0.000000 0.000000 -0.001342 -0.000718 -0.001257 -0.000697 -0.000730 -0.000487 -0.000281 -0.000263 -0.000119 -0.000123 -0.000052 -0.000055 -0.000022 -0.000024 -0.000010 -0.000011 -0.000004 -0.000005 -0.000002 -0.000002 -0.000001 -0.000001 -0.000000 -0.000000 -0.000000 -0.000000 -0.000000 -0.000000 -0.000000 -0.000000 -0.000000 -0.000000 -0.000000 -0.000000 -0.000000 -0.000000 -0.000000 -0.000000 -0.000000 -0.000000 -0.000000 -0.000000 -0.000000 -0.000000 -0.000000 -0.000000 -0.000000 -0.000000 -0.000000 -0.000000 -0.000000 -0.000000 -0.000000 -0.000000 -0.000000 -0.000000 -0.000000 -0.000000 -0.000000 -0.000000 -0.000000 -0.000000 -0.000000 -0.000000 -0.000000 -0.000000 -0.000000 -0.000000 -0.000000 -0.000000 -0.000000 -0.000000 -0.000000 -0.000000 -0.000000 -0.000000 -0.000000 -0.000000 -0.000000 -0.000000 -0.000000 -0.000000 -0.000000 -0.000000 -0.000000 -0.000000 -0.000000 -0.000000 -0.000000 -0.000000 -0.000000 -0.000000 -0.000000 -0.000000 -0.000000 -0.000000 -0.000000 -0.000000 -0.000000 -0.000000 -0.000000 -0.000000 -0.000000 -0.000000 -0.000000 -0.000000 -0.000000 -0.000000 -0.000000 -0.000000 -0.000000 -0.000000 -0.000000 -0.000000 -0.000000 -0.000000 -0.000000 -0.000000 -0.000000 -0.000000 -0.000000 -0.000000 -0.000000 -0.000000 -0.000000 -0.000000 -0.000000 -0.000000 -0.000000 -0.000000 -0.000000 -0.000000 -0.000000 -0.000000 -0.000000 -0.000000 -0.000000 -0.000000 -0.000000 -0.000000 -0.000000 -0.000000 -0.000000 -0.000000 -0.000000 -0.000000 -0.000000 -0.000000 -0.000000 -0.000000 -0.000000 -0.000000 -0.000000 -0.000000 -0.000000 -0.000000 -0.000000 -0.000000 -0.000000 -0.000000 -0.000000 -0.000000 -0.000000 -0.000000 -0.000000 -0.000000 -0.000000 -0.000000 -0.000000 -0.000000 -0.000000 -0.000000 -0.000000 -0.000000 -0.000000 -0.000000 -0.000000 -0.000000 -0.000000 -0.000000 -0.000000 -0.000000 -0.000000 -0.000000 -0.000000 -0.000000 -0.000000 -0.000000 -0.000000 -0.000000 -0.000000 -0.000000 -0.000000 -0.000000 -0.000000 -0.000000 -0.000000 -0.000000 -0.000000 -0.000000 -0.000000 -0.000000 -0.000000 -0.000000 0.000000 0.000000 0.000000 0.000000 0.000000 0.000000 25933.427115 28264.791077 24442.331264 22331.449299 21160.350323 18849.267415 17722.231554 15625.612159 13985.492175 12128.320023 10848.329442 26815.668181 27993.996714 23388.465117 23888.552381 21548.252053 21258.543032 18862.038310 18062.831089 15653.490240 14501.109135 12605.160235 27128.083086 27533.174706 27865.022974 24772.190253 24690.257938 20484.196946 18938.572260 17136.438616 15704.464323 14032.512641 12402.065643 25973.481872 25928.092288 24887.262901 24885.361804 22835.840181 21615.905469 19072.724069 17449.987415 15532.033532 14017.389319 12637.813958 30145.676306 27881.225465 26768.228454 25558.849053 23622.229596 20282.042970 18965.068543 17139.090814 16045.840311 14364.037960 12375.387770 28524.102793 28991.337813 24965.705755 24522.102725 22154.396455 21025.810721 19580.552122 17411.816185 15364.532178 13023.874407 12517.335129 28366.068663 26846.949444 26495.483742 25136.924427 22954.996682 20986.048396 18591.351122 16905.215467 16017.485931 15374.441275 13205.879519 28555.483248 28231.876443 26691.836898 25019.757295 22385.575659 21082.216150 20261.234427 18641.252125 16364.238663 13561.509441 12723.284224 28521.609765 28538.392979 27243.162213 24860.637776 23597.119778 23080.645492 19925.334199 17154.664641 17256.172929 17314.207787 15375.192077 28609.048731 28183.721942 26755.152574 26249.665956 24755.164917 21556.310547 20695.004823 21472.546672 19422.353325 14484.705500 13594.198778 27802.520604 27659.975163 27996.671430 26578.576879 23463.161336 24125.097036 23685.905186 18273.744549 16614.449481 20005.013667 18442.537869 26996.706532 28326.775475 28764.888630 25595.602999 25404.105653 25329.321693 20166.601195 21004.240489 22628.718141 14721.064350 10170.097233 26399.988291 29138.182808 27840.937502 25693.848320 27107.416052 23575.276972 22623.362333 22533.915894 13601.044812 18319.732510 22987.716900 27226.592264 30231.190774 26972.340567 27668.297761 27313.335533 22059.348611 22210.452033 18030.734829 20528.866901 15122.145270 11952.296105 28091.545196 29931.854747 26506.410311 29554.998999 25545.471082 23011.920611 24411.140919 17536.462903 16599.313844 17307.842281 16005.011049 29196.718646 29764.677314 27483.466617 30293.225837 22889.318898 25493.075008 22515.941626 17448.587790 24132.780475 14851.889425 182.105148 29963.085945 29654.351510 28729.026896 29396.151721 22988.557208 27087.857418 16338.977259 23094.246826 10009.357740 21061.279737 11823.436737 30357.942243 29777.110742 29506.255056 27991.204224 25159.404844 24897.366640 19064.829123 20062.331306 17865.258010 14758.026539 1775.487884 30731.296977 30346.433819 29847.744699 27701.339497 27027.572200 21355.266487 24353.227569 13779.788388 21270.821530 7507.002429 606.773962 30880.499450 30663.959216 29653.401569 27748.455161 27495.411870 21176.120627 24164.543500 13744.772008 17200.722305 13280.995010 -6001.614366 31034.049035 30621.541862 29506.657024 27639.163005 26599.448105 22811.451461 20710.901047 19060.778328 11873.574216 14505.935418 18890.900173 31381.566180 30288.732442 29359.056713 27136.057978 25452.676740 23594.817258 19089.887235 20347.639000 8332.218849 15545.698530 19748.109703 31918.145531 29848.850716 29026.921070 26452.482724 24284.395597 22877.323097 19073.930016 18813.499788 10877.600218 14708.944942 17495.239329 32614.776016 29641.303839 28547.794224 25751.816715 23161.211179 21307.939785 18767.499981 16904.863443 13296.170887 10659.473535 19580.333370 33444.851755 29693.747107 28147.799398 25010.173712 22203.371754 19766.508013 17506.057229 14948.485596 13437.688019 7728.851089 17691.826928 34198.198017 29850.937551 27984.658218 24446.014939 21383.921712 18646.714263 16179.810056 13183.706317 11908.859374 6463.364599 12404.011803 34652.679818 29993.494353 27986.220512 24227.630055 20915.137593 17818.203956 15212.822877 11967.759174 10149.629162 5661.295094 8153.227799 34663.871807 30014.226350 28016.219886 24162.258310 20881.392391 17374.819359 14608.711329 11265.297239 9035.530390 5069.517143 5482.510354 34193.623007 29811.982045 27986.630712 24023.109679 21002.390132 17238.619124 14388.780063 10942.967058 8442.942902 4676.175363 4006.697116 33331.947058 29322.793537 27805.409272 23704.880987 21025.761248 17115.999474 14304.394807 10827.484080 8170.380549 4461.848042 3262.900458 32258.423906 28570.025593 27404.725031 23147.788076 20820.904272 16847.318028 14110.584982 10700.552701 7723.636211 4288.514076 2886.683943 31151.682736 27654.034022 26816.362738 22387.162447 20352.066454 16390.116283 13727.901373 10428.102790 7440.166733 4349.768000 2669.422959 30121.062468 26701.201436 26131.063148 21536.267702 19703.250096 15794.176994 13192.451579 10037.915118 7111.368555 4192.785848 2499.424880 29206.761372 25783.047265 25414.756621 20684.468560 18978.278169 15145.708723 12590.695374 9594.604746 6753.447810 4007.319805 2342.110505 28419.698911 24973.744636 24752.617418 19932.525408 18292.744901 14535.612848 12005.391413 9156.152487 6401.073563 3817.079536 2195.890547 27688.998211 24255.779435 24126.779301 19265.896540 17675.750533 14008.743224 11498.077980 8772.893825 6087.165729 3642.029287 2068.730758 27075.753590 23664.881786 23595.571087 18710.390334 17135.971062 13546.348554 11056.511385 8445.663923 5825.470523 3497.160133 1964.584347 26520.778715 23137.434297 23110.339402 18235.481114 16702.948701 13190.451745 10709.576601 8178.407024 5607.386451 3377.314073 1883.301529 26024.467485 22692.307850 22647.638082 17751.292675 16255.102536 12829.786139 10408.294097 7967.586207 5438.003440 3281.252200 1820.881262 25594.997426 22342.412870 22310.052044 17431.958052 15964.742698 12557.172503 10152.232904 7771.876417 5299.739131 3209.283658 1775.217773 25177.675865 22022.983082 21873.878726 16984.972708 15619.574693 12286.017342 9985.145012 7639.038620 5194.633798 3158.928249 1742.062446 24747.273999 21792.782258 21664.510069 16772.423922 15434.235743 12044.321288 9798.779000 7535.764297 5121.839007 3127.394312 1725.436493 24479.045581 21567.797154 21275.688611 16382.797796 15182.951028 11953.627596 9735.214960 7471.443329 5091.015331 3093.078883 1728.107363 23975.881329 21355.681766 21026.610848 16360.600457 14989.749928 11667.512345 9685.595499 7425.348385 5098.228647 3083.336347 1730.488621 23427.812187 21057.666405 20340.410201 15953.967827 15144.812568 11596.596071 9642.956780 7445.250601 5089.949290 3105.660934 1730.418518 22827.400699 21839.499328 20902.170089 15285.909052 14741.758952 11603.793342 9559.260873 7481.481081 5129.169567 3120.785068 1748.152899 21382.592296 18705.989416 20594.855277 15847.188658 14605.795653 11678.800244 9712.045572 7463.279737 5175.541862 3134.378099 1777.729871 27164.211089 20733.761145 19189.445435 15878.839574 14347.629828 11524.451566 9746.846293 7698.117578 5188.335309 3172.823398 1801.004509 25733.927588 19987.692853 17758.687122 16815.406444 14307.393784 12265.818955 9343.902050 7975.740443 5219.322220 3183.145202 1844.786909 20233.288592 10094.367623 18368.097145 18237.081966 13537.550365 13352.533717 9241.311240 8122.965425 5347.459826 3121.631965 1912.559546 14722.183560 12947.783877 20083.470811 18711.967038 13155.815121 13697.978467 9225.707131 8156.431506 5415.264084 3109.781961 1950.499325 20219.215828 17274.773702 19992.596687 18027.163381 14288.605224 13680.043966 9424.650686 8380.295679 5292.985677 3147.090970 1952.888025 31363.912581 25712.333108 18857.446189 17330.987235 14849.287435 12845.947297 9534.313855 8399.128835 5330.271732 3135.429002 1943.956869 43055.237750 23621.256883 19177.283059 17145.738705 15564.171594 12457.844669 10321.723498 7885.558078 5582.668304 3063.281735 1901.535086 33179.120955 15137.664095 9688.324518 16219.700334 15668.088746 12219.836791 10770.190164 7484.285794 5862.276776 3016.904852 1846.042328 20079.708191 11294.420296 10978.936564 17276.673489 14581.529040 12498.405384 10586.725714 7323.554723 5910.187062 2915.169498 1885.256272 19429.984776 16949.382526 16406.760899 17497.470525 14423.975445 12708.307945 10436.533468 7400.119786 5992.929073 2737.065730 1954.179791 21919.909424 24547.878307 20912.207803 16901.713074 14627.527490 12201.284151 10041.201574 7316.793999 5866.552847 2769.474897 1893.576724 25321.409473 36503.437585 20289.651752 16397.274201 14100.859097 12118.967714 9900.547496 7630.904251 5379.716898 2997.293289 1711.105702 23460.577290 27955.684487 8526.951777 8331.964624 13484.893832 11853.413619 9675.990276 7423.536008 5149.063231 3173.707501 1540.125033 17625.101414 16479.781368 7900.930754 7589.160279 13954.114483 10971.251398 9902.605367 6933.550690 5077.148134 3186.398263 1402.261693 15599.167029 16130.068415 13942.768990 14381.387763 13740.548164 10423.106559 9627.273955 7008.255845 4871.195906 3362.601533 1283.016767 15576.399260 17849.391179 17359.987078 14310.962501 13797.381965 10904.053754 8952.939546 7237.935397 4574.070158 3330.775126 1356.859697 15907.460019 21302.514890 29092.382974 16818.886914 12952.660455 10348.428411 8943.967610 7329.441764 4832.640881 3040.959944 1505.971783 14879.082873 19967.472095 22776.033879 4608.390684 6705.276756 10412.867535 8676.340081 6833.520828 4691.873850 3159.019394 1459.194095 12811.726277 14683.684099 13617.476440 6023.012370 5593.816463 11217.453364 8589.837356 7404.359151 4305.648984 3265.362607 1405.743848 11366.801516 12801.977439 13246.009285 11694.944263 11919.671146 10701.208154 7965.154944 7265.288492 4521.283072 2851.414757 1635.281879 10670.887984 12747.489129 14485.195842 13712.223038 12889.747677 10989.866833 8529.936024 6714.650192 4969.695092 2435.396314 1748.977811 10199.470815 13124.641783 17817.152070 24173.371104 14831.997133 10533.108604 8014.666966 6893.314734 5065.724095 2636.481815 1633.772486 9459.605049 12280.081125 17019.049006 20401.812214 3603.970344 5527.770099 8394.974335 6811.056014 4726.728896 2449.744174 1798.305462 8455.944084 10452.966042 12389.613810 12310.651623 5601.638422 5037.593309 9296.074313 6694.781467 5303.195340 2011.306485 1974.151659 7558.593229 9188.549015 10632.469885 11338.576934 10307.727816 9938.468118 8602.549029 6324.861230 5097.722004 2298.744500 1754.105372 6911.378601 8618.577978 10627.433493 12408.690404 12356.369796 11107.277609 8915.928276 6666.839180 4481.092779 2872.427596 1421.590064 6397.515717 8273.861709 11085.186386 15639.583728 22135.477470 12687.682240 8377.816491 6252.844739 4881.558004 2915.488773 1514.653652 5862.818723 7685.107173 10431.151778 15087.033216 18451.324561 2789.481562 4150.458824 6574.178119 4873.480598 2533.449923 1569.073002 5278.828751 6836.443271 8806.768429 10707.778848 10644.845558 4786.579858 4592.232430 7572.442464 4665.403884 3312.040003 1160.806117 4724.425573 6065.495436 7651.638815 8967.754518 9450.792329 8165.810377 7885.506153 6886.206769 4488.328351 3262.072392 1204.568420 4255.135965 5515.985516 7142.283259 8986.192096 10574.804797 10361.067836 8805.694043 6749.080019 4780.672789 2572.159987 1593.903251 3854.604070 5090.308000 6854.773059 9436.391407 13667.321698 19488.105009 10111.807809 6604.573786 4356.582782 3020.179055 1501.059049 3479.028455 4646.590554 6350.151104 8869.838950 13201.612018 16552.716076 2540.601351 3140.391787 4925.356581 3036.200847 1398.854769 3109.617183 4151.989904 5595.711679 7385.519448 9169.090922 9304.161728 4037.514370 3723.937583 5676.734055 2455.605655 1947.474007 2759.388333 3673.797785 4888.405181 6270.594963 7404.310918 7690.815938 6599.474474 6550.084833 5015.361335 2374.035354 1912.388909 2444.984315 3265.331340 4367.858087 5710.911511 7178.432691 8377.031386 8231.373096 6657.630252 4380.259128 2955.686004 1513.716629 2167.460064 2919.600625 3966.848459 5369.855723 7325.947687 10376.892748 13718.358448 8339.701002 4580.175609 2376.947439 1852.796660 1916.732011 2602.421372 3572.318540 4904.003852 6799.045890 9984.047584 12895.638123 3767.914493 2423.876356 3118.973435 1796.972336 1684.514313 2294.909938 3146.654925 4259.872973 5603.392632 6979.448281 7483.651671 3745.397705 3140.753471 3678.347007 1449.660929 1469.982885 2003.032098 2730.114576 3632.036940 4615.269586 5444.898199 5954.824535 5696.966740 5042.208829 3007.151512 1323.481741 1276.340746 1739.953554 2364.160640 3125.478618 3959.414684 4766.565281 5520.543002 5997.374346 5037.412459 2784.174733 1574.293045 1105.770829 1511.630491 2057.771180 2729.002372 3492.351555 4318.880261 5273.375605 6071.092434 5298.052980 2915.256928 1330.590621 957.709232 1316.100912 1801.082913 2404.387666 3106.980143 3891.466171 4804.606536 5599.413442 5065.575845 2410.085944 1220.070605 829.706966 1148.199081 1582.277778 2127.290316 2766.907443 3471.760412 4201.594785 4731.415544 4130.210302 2461.997754 1350.382681 718.640286 1002.581480 1392.681930 1887.359046 2474.569910 3130.403655 3815.563741 4397.699287 4079.175590 2723.778995 1308.394084 621.374347 874.370762 1225.115921 1675.847515 2223.216882 2861.967142 3581.444547 4245.465198 3964.187573 2798.332713 1256.972321 535.119031 759.275164 1072.698366 1480.879261 1988.937526 2612.412977 3400.344973 4391.571578 5089.292132 3279.004025 1160.244132 457.784999 654.205279 930.325838 1292.385756 1747.200945 2312.711213 3044.587333 4169.664784 5100.534645 3252.746573 1230.725358 388.265642 557.959280 796.770638 1109.176037 1496.661100 1956.343394 2458.403836 2885.356809 2674.485548 1420.839798 1796.090029 326.412254 471.148911 674.565636 938.937865 1260.667421 1624.050550 1978.507093 2193.376697 2138.605790 2082.990504 2205.994386 272.682229 395.301194 567.526219 790.584747 1059.864379 1360.982100 1661.230538 1895.843670 2040.606111 2151.541260 2011.255430 227.711234 331.894352 478.455891 668.695388 899.431827 1161.639045 1439.105434 1702.285601 1931.505131 2061.742516 1788.733460 192.094777 281.989802 408.666223 573.934263 776.052524 1009.241479 1264.955181 1534.072223 1833.314621 2112.372065 2059.540321 166.665007 246.492136 358.693818 505.822307 686.457148 894.839616 1120.998728 1350.057976 1564.449639 1664.147377 1315.342311 9615.645815 8303.895000 7210.157705 5966.067396 4803.366603 3790.494128 3006.537925 2371.941344 2079.807542 1647.559725 1505.006100 1113.541007 1245.254816 831.252415 11232.398361 9562.430971 8178.975526 6800.848823 5816.857346 4953.106613 4245.757466 3633.416527 2965.695637 2481.255180 1851.881276 1175.063740 -32.665030 451.101427 10996.722764 9408.071453 8127.468487 6877.156127 5838.115717 4932.722574 4119.835232 3749.512388 3208.259193 2921.647084 2194.472621 1848.908201 1037.624717 455.031472 11297.607373 9712.390095 8497.491298 7381.317000 6411.502196 5651.552497 4833.861671 4329.377578 3543.336104 2927.919494 2725.914285 1374.411354 642.758328 320.344530 11091.782102 9528.597268 8395.160544 7228.252020 6361.302615 5783.037843 5287.031600 4909.463421 4694.651305 3829.355829 3052.570797 2225.896326 1108.719591 551.950223 11095.029038 9682.702037 8622.719463 7576.213142 6882.797261 6140.298398 5715.582848 5184.364719 4504.835270 4297.071340 3703.055410 2252.187749 1050.581976 440.727420 11159.071043 10049.692329 8896.504746 7837.973021 7171.302198 6600.271473 6153.756055 6046.920292 5531.776845 4649.906102 3903.444778 2507.762376 1200.401059 521.661189 12428.642401 10955.944235 9671.662671 8716.063735 7851.528079 7233.544875 6630.562511 5976.269396 5538.268267 5211.118883 4490.511855 2804.612978 1368.758997 488.995058 12397.407479 10941.457474 10648.147359 9938.676453 9010.357299 8160.552604 7541.414326 7073.524313 6297.546440 5276.382219 4346.123948 2732.285482 1334.968622 513.619735 15127.699941 14313.007933 12524.386954 11098.139228 10310.317231 9720.702731 8666.760039 7559.090922 6604.923587 5636.390255 4573.277361 2857.803182 1442.035428 622.473093 13140.623191 10039.492980 11561.147664 12206.074189 11473.028528 10226.588204 9531.248238 8697.211814 7473.629863 5939.780898 4612.851593 2921.317784 1387.800971 573.671318 17931.093683 17714.306505 14629.400258 11037.124488 12163.545807 12938.613642 11779.927526 9801.222780 8087.740013 6350.368199 4828.358086 3250.169463 1471.093567 556.052716 3745.989711 13613.627929 13324.856555 13372.466170 11565.528831 8331.050684 6990.155587 8375.828073 8191.036586 6853.120278 5414.420540 3759.012300 1243.119325 641.429014 19096.254092 14934.957006 9357.128231 9147.506750 11244.814566 11429.076262 11725.642583 10491.246187 7190.019677 5514.581307 4826.632683 2598.699844 1168.957426 1102.067469 -1874.512855 16034.837867 13711.204062 8940.369283 -6122.765762 7393.524774 7596.981296 9663.402870 9695.392045 8592.138644 5756.084826 3213.922617 2407.355515 1452.032465
</DataArray>
<DataArray type="Float64" Name="Velocity" NumberOfComponents="3" format="ascii">