<VTKFile type="PolyData">
<PolyData>
<Piece NumberOfPoints="1945" NumberOfVerts="1945" NumberOfLines="0" NumberOfStrips="0" NumberOfPolys="0">
<PointData>
<DataArray type="Float64" Name="Pressure" format="ascii">
 17390.911063 15849.484291 14477.430666 11940.605950 11836.254515 9500.358002 13187.154247 11588.193390 12901.497346 9025.663528 13054.772818 10941.499179 14858.520210 13046.465745 11970.085189 7492.355302 14133.988391 12640.260977 15487.152070 10911.319183 17090.833128 14597.540374 16777.042442 11606.805135 15295.288997 14835.880324 12100.034327 9364.155996 17802.871656 17490.380394 18336.795820 13584.358624 18880.398060 16775.285681 18289.847052 15778.932867 19488.392583 17464.627874 20364.506766 17782.788059 23049.391874 21140.985812 21879.203171 17953.019233 25315.198165 24401.132215 25159.624847 22653.400538 22606.224048 19520.474480 25920.260070 24607.373304 25834.413876 24174.482715 25659.024802 24099.651699 27162.969609 26368.616387 28930.332946 29513.522918 26899.967166 24576.090635 28354.875273 27761.861949 33315.569526 32228.200628 32462.481973 33116.730599 30691.954545 31905.905751 29629.916235 30025.850842 30884.998005 34415.332670 30965.198152 33569.657066 31930.290904 32939.838843 37546.351921 41703.692601 36569.003352 37971.892268 34840.505316 34583.934824 32989.840531 33077.613835 37186.005194 40215.068720 34214.202772 37159.249354 36499.483227 37068.595434 39354.371830 41704.652499 39451.940676 40477.214526 46602.310248 47117.738967 56734.610967 65218.687768 62008.855890 72381.327746 58500.409772 70480.176353 42184.335026 43980.624268 31359.564341 32849.292749 28647.674441 31589.068777 29127.163030 34213.302748 29935.954037 36171.764743 29340.893213 33312.030139 28070.713491 30089.725340 27051.143452 28284.367787 26418.756762 28235.376739 25363.441460 26875.924191 23761.428752 24208.995738 22259.734321 22178.494816 21224.640485 21299.498200 20469.452641 20812.501264 19696.881539 20048.795144 18837.729845 19019.908456 17996.687653 18076.417419 17236.939959 17328.347227 16520.380217 16652.047776 15785.214237 15903.515190 15026.271549 15088.463156 14287.439344 14313.555734 13601.799399 13634.110782 12965.099750 13021.446034 12356.016341 12426.544752 11762.640543 11834.386804 11186.076293 11259.513251 10627.518770 10710.742588 10080.071011 10175.692039 9533.198893 9634.594221 8981.401042 9079.421929 8426.955344 8517.212597 7875.771573 7959.235274 7332.463023 7411.513352 6799.164181 6874.585818 6277.364430 6348.294484 5769.773733 5835.063933 5280.626065 5339.788546 4814.795006 4868.131879 4376.691225 4425.039593 3969.503053 4013.930786 3594.899273 3636.417960 3253.151959 3292.463862 2943.588529 2980.946460 2665.209249 2700.464225 2417.246454 2450.061029 2199.477336 2229.585846 2012.232694 2039.624332 1856.179740 1881.159204 1732.018070 1755.142911 1640.411303 1661.590993 1582.545119 1601.432451 1558.723715 1577.234737 14430.810344 13222.293935 11544.001484 10815.588351 8507.630271 4657.711373 4234.545293 3417.461233 853.936590 1081.426479 2575.187804 -594.148062 -3011.376547 -1804.992454 -685.900047 -3560.994845 -7604.498390 -6335.498347 -3475.446780 -2061.226094 -8047.736225 -10395.889096 -9598.969126 -8684.916078 -7819.491384 -6970.591789 -6150.403531 -5373.379453 -4650.335089 -3988.229846 -3390.681890 -2858.509273 -2390.288760 -1982.921347 -1632.162883 -1333.082181 -1080.428192 -868.905971 -693.372529 -548.968059 -431.197884 -335.977972 -259.653924 -199.000695 -151.208362 -113.857923 -84.890349 -62.572148 -45.464210 -32.425190 -22.852785 9897.900302 8301.829733 7527.219491 7896.283226 3850.136770 -272.032526 2270.475647 2313.223668 -4926.837170 -2058.792669 3529.416996 -1239.638414 -4348.843901 -1665.875806 758.613640 -1185.847065 -6705.078383 -5944.027690 -3595.780261 -7155.441671 -12298.594428 -11008.764148 -9543.377788 -8683.694566 -7824.088099 -6978.469912 -6161.016838 -5385.957947 -4664.091748 -4002.487995 -3404.890842 -2872.241768 -2403.235171 -1994.878481 -1643.017455 -1342.791728 -1089.002461 -876.390819 -699.837116 -554.495261 -435.877387 -339.901391 -262.911382 -201.678417 -153.386993 -115.611339 -86.284579 -63.662552 -46.279676 -32.866814 -22.064450 1633.592930 1675.031970 1724.989162 1776.379078 1822.624667 1856.456281 1869.043990 1847.158934 1762.455027 1526.822744 1106.870116 993.008940 998.600677 894.702271 780.699182 673.476760 575.630013 488.006661 410.592008 342.925521 284.321577 233.993299 191.122715 154.900305 124.547168 99.327503 78.555799 61.601081 47.889319 36.904485 28.188407 21.339475 16.010284 11.904335 8.771994 6.405918 4.636207 3.325494 2.364172 1.665914 1.163592 0.805654 0.552995 0.376303 0.253863 0.169769 0.112494 0.073769 0.047704 0.030083 0.017658 1610.151537 1651.619582 1699.203591 1747.844596 1790.991408 1820.822011 1826.900068 1793.075322 1695.655711 1516.647555 1289.975009 1136.142840 1015.809723 896.216188 782.061139 675.192284 577.550724 489.970481 412.496679 344.714707 285.967439 235.484740 192.458273 156.084020 125.586229 100.230937 79.333738 62.264311 48.448968 37.371762 28.574362 21.654775 16.265016 12.107847 8.932775 6.531530 4.733258 3.399655 2.420226 1.707826 1.194597 0.828350 0.569436 0.388090 0.262228 0.175643 0.116575 0.076573 0.049621 0.031502 0.019540 -16.891796 -14.271160 -15.569231 -13.236204 -11.928825 -10.787607 -8.100626 -8.005975 -5.650307 -5.692311 -3.938824 -3.988161 -2.729841 -2.768639 -1.878621 -1.907041 -1.283427 -1.303796 -0.870427 -0.884858 -0.586066 -0.596197 -0.391782 -0.398834 -0.260051 -0.264920 -0.171406 -0.174739 -0.112196 -0.114460 -0.072938 -0.074463 -0.047096 -0.048116 -0.030207 -0.030884 -0.019247 -0.019693 -0.012184 -0.012476 -0.007664 -0.007853 -0.004790 -0.004912 -0.002975 -0.003053 -0.001836 -0.001886 -0.001127 -0.001158 -0.000687 -0.000707 -0.000417 -0.000429 -0.000251 -0.000259 -0.000150 -0.000155 -0.000090 -0.000092 -0.000053 -0.000055 -0.000031 -0.000032 -0.000018 -0.000019 -0.000011 -0.000011 -0.000006 -0.000006 -0.000004 -0.000004 -0.000002 -0.000002 -0.000001 -0.000001 -0.000001 -0.000001 -0.000000 -0.000000 -0.000000 -0.000000 -0.000000 -0.000000 -0.000000 -0.000000 -0.000000 -0.000000 -0.000000 -0.000000 -0.000000 -0.000000 -0.000000 -0.000000 -0.000000 -0.000000 -0.000000 -0.000000 -0.000000 -0.000000 -0.000000 -0.000000 -0.000000 -0.000000 -0.000000 -0.000000 -0.000000 -0.000000 -0.000000 -0.000000 -0.000000 -0.000000 -0.000000 -0.000000 -0.000000 -0.000000 -0.000000 -0.000000 -0.000000 -0.000000 -0.000000 -0.000000 -0.000000 -0.000000 -0.000000 -0.000000 -0.000000 -0.000000 -0.000000 -0.000000 -0.000000 -0.000000 -0.000000 -0.000000 -0.000000 -0.000000 -0.000000 -0.000000 -0.000000 -0.000000 -0.000000 -0.000000 -0.000000 -0.000000 -0.000000 -0.000000 -0.000000 -0.000000 -0.000000 -0.000000 -0.000000 -0.000000 -0.000000 -0.000000 -0.000000 -0.000000 0.000000 0.000000 0.000000 0.000000 0.000000 0.000000 0.000000 0.000000 0.000000 0.000000 0.000000 0.000000 0.000000 0.000000 0.000000 0.000000 0.000000 0.000000 0.000000 0.000000 0.000001 0.000001 0.000002 0.000002 0.000004 0.000004 0.000007 0.000008 0.000015 0.000015 0.000029 0.000030 0.000056 0.000058 0.000108 0.000111 0.000202 0.000208 0.000375 0.000386 0.000686 0.000704 0.001237 0.001266 0.002206 0.002233 0.003925 0.003836 0.007264 0.006134 0.010960 0.008528 0.012745 0.009995 10486.115050 9800.557238 9250.816328 9316.752161 8000.954754 5124.204749 8481.231658 8570.236632 5471.246485 8154.209513 4011.213028 12365.971571 12162.330172 9716.834016 7256.467619 4637.262865 9696.292101 9545.662325 5168.574092 5951.115696 9633.972787 5139.289445 13371.385993 9402.592256 11509.379662 7837.331885 15008.890374 7671.096988 8447.285336 8844.192913 6526.579202 4918.359796 8409.776182 13115.795897 13410.990929 8263.562126 11649.465276 11403.436731 9261.421307 9650.612065 7076.262289 14269.613196 11216.958888 9668.832959 13682.317935 10641.585961 12050.372126 13956.194975 14593.348857 10488.146164 10107.975232 9517.904076 8680.440138 9010.382760 7674.539825 13669.764171 15176.239266 13698.812436 13817.372133 12310.177166 12393.274051 12348.041676 11152.247341 12050.638071 7535.604568 10598.990514 15959.180561 13393.638219 14334.756681 20262.787743 14096.868271 14932.097232 11420.776442 19027.455083 12852.621344 15369.411420 9658.189989 16900.218421 17721.957047 19400.576431 17700.208344 20758.329407 15505.498795 14974.990946 15341.603098 11794.289280 13912.441263 10290.781315 18803.455048 23242.367771 20429.451778 17336.416927 19466.696759 18922.722883 13532.686535 19338.906856 14848.676596 17046.088753 12788.649991 19856.857920 24885.455161 20125.246453 20877.691340 20808.214868 25054.447757 16152.400540 17722.916665 16964.011792 16003.568433 17041.925777 23969.954642 22338.258449 22969.979625 20730.134297 23303.022014 18873.856317 22844.282797 15736.135340 15952.335964 14991.233057 14242.705159 24377.306124 26633.152572 26876.672167 26852.789538 20968.704452 20670.937684 19426.411705 19327.796596 17765.694767 23979.579245 18106.519749 26844.685415 22622.888225 24764.271508 21269.344150 22884.707507 23063.100215 21949.193415 16243.337799 17483.354261 17159.756838 15332.705406 26149.760928 26363.285575 25842.736676 28235.221145 25914.144923 22889.654542 22584.842925 22242.656588 21980.615755 12697.186232 5804.049689 30673.298832 29111.133805 28056.371571 25681.493965 23304.606344 24756.101271 19543.733477 20947.418546 11001.148569 11008.259104 2180.896875 27253.813045 28405.990992 28902.616329 23354.496758 22670.499624 18172.724259 18274.445262 15679.683301 9332.920847 -279.494795 -1955.907522 29896.363065 30393.743195 28315.065744 24627.068058 26018.097872 21649.270294 13660.656166 19134.185530 854.052555 2343.799776 9394.179874 30563.493622 28882.248391 26145.791246 27237.595635 16946.475211 9939.921002 16354.220205 9671.072083 4623.917063 2406.671180 3753.276830 30324.715197 29029.283167 30288.692847 29564.210446 23466.755101 20851.368026 10523.207723 11190.945857 6979.323278 785.290300 2883.510241 32224.933433 36341.072841 29832.585668 24289.435176 19827.108340 19218.013199 9874.243028 8788.355967 -950.192068 17115.468703 5931.588446 35215.851343 28300.859987 30941.840266 25927.914104 21412.923348 17435.215401 13759.895521 4828.831004 5921.394422 -1800.295584 -3796.342525 35031.037471 33019.744220 27859.022232 27227.516450 23974.559341 12491.114029 9328.153814 4004.672503 14200.376241 10059.510519 6051.551561 35447.941001 32742.873971 32032.021492 26891.745635 18185.537026 17657.500986 15354.379771 9318.273847 2230.515608 9863.606784 1903.517388 33485.796513 31789.756089 25872.571103 26080.954449 15278.655174 16786.134828 15826.538797 8613.467563 575.393160 1584.109718 4024.165220 33136.068753 33955.030205 28107.206489 25883.465526 22914.680768 20405.238118 11758.479112 7634.217203 7136.456096 6547.807249 2320.752655 35370.837454 35416.390019 28062.339523 26599.822240 27975.938416 11118.152357 12696.691397 11247.211490 11291.747291 9789.012355 -1830.778889 34112.418801 32164.772630 28089.324699 24479.131074 22300.381066 16449.052544 15203.553510 9858.799608 8181.203838 10989.577994 17643.372750 35057.589550 30246.959790 30623.387948 27446.503450 19544.953711 20900.015992 16422.204565 10553.498815 8006.119919 -6075.522279 10330.271444 35455.096481 33489.195387 25533.345382 30558.983438 25727.013665 20903.859717 14143.168479 14846.353659 12182.485251 8699.351992 17598.109865 33098.424128 36152.040751 35173.657679 33244.238828 23279.556283 18501.662500 17771.264081 14823.923178 14479.551793 8185.127638 2358.991577 33183.935356 32584.611736 30033.960700 31056.831967 24288.084549 20089.830610 16427.089388 12707.559581 1434.996201 12174.235430 12449.575104 35612.268596 30164.166515 30181.450405 33064.015219 24901.789860 20939.721937 14302.357067 16169.928300 6593.429822 8963.770399 13341.114280 38561.592028 31147.989827 34054.418688 28140.908584 24644.212887 23525.583580 19621.209499 16533.762212 9454.355167 14130.373509 18376.421776 38975.843266 31076.530579 34669.372240 25330.676849 28360.043199 21920.891000 18488.609194 15354.074260 10381.656769 15779.591396 4025.415444 36893.109287 35004.404831 33233.046721 30581.518787 25736.814673 22296.144182 21788.574650 16165.787884 14146.018097 14494.812968 9552.322615 37134.322914 34922.865836 33077.131948 32738.004523 24583.556921 23417.437263 18838.489063 17581.588576 8878.198904 17016.029990 16915.788117 36842.461657 37493.510454 36360.874070 28275.462499 27618.042472 22350.898787 19287.215198 17202.538624 16591.546930 11567.300637 1555.963532 37142.923125 37353.729049 33132.678299 31974.459227 29792.447262 22751.089111 20772.839283 15760.742311 17037.783091 13045.896778 469.386368 38923.208435 42203.088912 30799.264325 34084.522634 22186.351467 22437.672057 18109.696335 14320.271768 17568.909442 2521.676665 9865.353031 34849.317848 31755.530534 32387.428948 27482.935110 25670.648128 23244.274223 26617.523585 13783.503101 10337.284389 3614.799209 3141.356714 47638.497729 34043.634211 34705.230556 27892.888860 29576.694125 24339.283202 20083.351130 19603.449076 16052.584038 17183.770796 6356.557558 37863.904131 36852.898742 47705.479478 30105.844167 27667.466149 25996.491973 19847.734281 18780.501111 14291.222113 9090.936258 -9538.470201 33072.901359 38580.964506 33576.671913 29888.729001 24545.640079 20902.503255 18891.221491 21194.151629 16899.781757 14898.614018 12019.000124 20566.210517 36963.608772 34133.970005 26440.693278 25512.490233 25449.932472 20982.944130 23438.423510 17277.587601 15810.658065 17494.029434 57567.802623 30037.596649 31018.300414 27827.869751 26679.812976 23878.545703 17758.820037 20414.998813 17138.539532 17951.831176 5842.952018 43607.252537 28231.996986 30952.356751 26130.664441 22407.589772 26749.775092 22379.784100 21441.685411 10514.912538 16920.916236 8657.652118 15739.126837 23008.488008 25808.849052 26882.822550 21796.531591 27817.875890 26398.579809 21513.942244 8560.961726 13875.414088 10795.713628 7895.818194 29211.709934 15422.388390 31064.567003 28371.507578 21349.436254 22795.868372 19497.207801 16551.970749 14613.048607 12449.040159 13652.004916 -5276.818047 18271.458269 5669.945415 31880.192337 25056.475073 20492.961709 15573.999117 17657.075413 5197.969868 2824.032549 10369.674973 13179.291843 2504.711930 26558.906467 29160.633593 25550.221048 23121.035535 19054.139257 16961.345677 7811.090183 10072.070100 13442.179567 -12100.084486 -586.323264 27799.266198 23576.575220 26725.563272 22165.432146 18927.676383 12319.126057 12845.362746 14133.508388 12403.780116 16150.433514 18421.368440 21960.489980 26262.119915 21773.111397 23351.547452 17612.976950 16631.528654 19056.631119 2302.626795 16857.139972 10586.306281 8738.352115 13590.720191 20538.386026 21004.954090 21565.625512 18333.125350 12956.731722 15058.114567 6582.675086 41310.404978 30426.115887 6243.438475 24733.608022 24196.289327 23882.028385 22491.145973 15864.335115 15831.461387 12962.038966 16699.604597 44367.509576 17492.019813 7184.798019 8042.306544 26964.849057 22475.911848 18004.547157 15256.482148 15527.690090 9816.091467 11785.986053 37771.888404 15566.765617 11862.916594 9726.131005 22200.806608 22298.048720 22328.048044 17666.655496 15962.956674 13980.708547 9281.824056 31645.115338 13511.689664 35347.026564 33172.376063 22462.401460 21261.768146 18584.715150 18295.779581 13257.418786 9828.757600 15004.984721 30305.407003 31150.882063 18697.211873 28769.119015 14625.559773 20136.626847 21984.780741 12231.543759 13611.378052 8442.847242 13975.219644 36319.857115 54149.756182 21723.903631 3163.020694 17972.990770 18357.537210 16358.008030 18594.116251 13120.723648 12704.967025 -3399.306341 32743.866093 39080.283950 -942.901769 453.568990 2064.048079 18956.861745 17246.930156 9978.717995 15298.467546 10642.194292 13596.148950 24712.496282 23117.713490 4360.537125 10150.097074 7252.384939 15134.503897 17892.224970 19599.435535 15026.710091 8126.935665 8611.260016 21431.542105 19946.480231 13919.737194 15535.040621 19971.871745 20713.872877 16666.950067 11972.982945 11556.315567 11401.111294 -0.011841 21747.078312 23068.711103 25867.064301 19876.965830 20607.327416 24233.231699 13394.990864 15105.527394 11101.164840 10678.091564 7594.291412 22309.484617 27627.666492 41942.089223 33811.384119 2939.213471 12939.508861 15214.398297 11992.284723 11633.785742 10882.458676 7766.055762 21358.353018 25845.169413 30233.534705 -4344.055085 6839.116845 2696.131644 10575.198695 15227.171951 9221.656467 9307.258127 2523.257094 19498.398475 20300.191165 21049.607563 8536.716489 4427.685716 8822.012631 10945.105592 14722.509081 11387.175192 9842.598690 4475.441661 18249.850346 18372.871931 18450.537899 13627.063164 15310.007908 11131.386108 13213.083078 11533.841506 9235.967650 8902.328120 8978.444786 17592.913351 18033.119850 18480.600297 17746.886734 20126.286249 14563.702969 13862.539727 10462.128493 10389.438775 5902.050829 4871.193563 17093.537254 18273.364630 22028.864486 30479.113421 20110.391393 6475.526926 13073.382794 12312.905045 8123.125006 7119.011489 2494.110547 16280.482847 17179.758804 20086.923258 21642.556743 -6619.851735 4772.779135 4963.689674 7574.762279 10482.998685 8351.266163 7275.459984 15241.574001 15375.621041 15427.923929 14438.842485 2913.364868 8994.603990 3187.311031 9217.316791 8580.265626 6271.304738 4596.454875 14351.791339 14263.399867 13816.464784 12777.635659 7664.560062 8453.304943 6502.169731 8609.011506 4940.264168 5574.750906 4687.345873 13709.735650 13817.863623 14009.225226 14275.025308 13983.773206 9850.101614 8756.560840 9278.021479 6698.721053 6168.324025 6533.230573 13177.203486 13529.132961 14450.493467 17267.658718 22846.592740 11656.477522 9373.430834 6790.465789 7407.484400 5400.472245 2868.377071 12610.367545 12984.129422 13782.098851 16172.662483 16453.784510 -7598.998076 3330.838689 5657.987835 4702.718844 6541.883446 5557.497741 11998.641148 12245.003474 12498.101394 12774.783753 11945.832861 1557.495854 1597.035216 3115.349544 6039.867837 5341.972450 5329.208790 11415.396964 11610.970882 11729.123442 11462.698617 10608.271279 5938.735241 6381.700992 5345.643086 4871.743284 6176.529077 3491.144549 10893.829466 11166.069916 11537.980633 11990.118633 12286.127063 11819.042276 6737.394169 6036.044676 6097.481599 4646.125097 4918.095858 10396.102664 10770.061420 11432.236821 12747.058855 16018.042070 22770.967903 8024.117852 6442.453678 4235.973416 3644.145396 2622.574738 9868.286614 10263.220056 10939.878686 12151.058423 15237.997198 16922.269841 -8175.624876 -1054.433455 5703.519520 5119.365390 3224.524046 9296.595756 9630.055364 10090.725415 10551.116750 10764.880755 9423.460566 176.262048 1603.662880 2497.756664 2880.617820 5296.340559 8708.023485 8972.000376 9266.540007 9419.231362 9124.302748 8165.070176 4568.703333 5629.391812 4073.732740 4056.488272 1940.187512 8131.460129 8362.606511 8624.745030 8848.402728 8944.034890 8674.601809 7630.033967 4143.260131 4195.436801 3360.632908 2579.684730 7574.510888 7799.738849 8089.322865 8469.873108 9115.732653 10885.307281 13477.031534 3202.672437 3510.870118 3817.915232 1781.713541 7030.476251 7250.282648 7545.635737 7951.181488 8579.290684 10173.616461 10457.387623 -1882.818897 4429.046281 938.762302 2498.170886 6493.996991 6697.228592 6961.220132 7279.581383 7599.853712 7832.610312 7095.831962 1021.590113 2456.363006 1750.311903 2686.657014 5967.458502 6147.160819 6369.148684 6610.077327 6823.984700 7057.085669 7603.644787 4604.225126 4010.018101 1887.046289 1998.732307 5458.059379 5614.054582 5799.737030 5991.112041 6154.705583 6256.813339 6474.914695 5351.454415 1683.405866 2348.326196 2714.300028 4973.461608 5109.012324 5266.311075 5423.300904 5556.655158 5661.445866 6096.772234 5640.200182 3601.121154 1894.052338 2152.597656 4519.720328 4639.354922 4775.649354 4906.319371 5001.312652 5013.616974 4933.428977 4531.517864 3210.117068 2197.279947 2234.827311 4100.690725 4209.530617 4333.276949 4450.540637 4528.503205 4511.857850 4328.155706 3863.894065 2742.670299 1400.432942 2241.408611 3717.796229 3820.686781 3940.627234 4061.080447 4157.016712 4185.416230 4063.701813 3617.884444 2709.682988 2990.867913 1654.268749 3370.160651 3470.262812 3592.100993 3726.993538 3865.956250 4000.495450 4115.409676 4075.718660 3329.216354 3481.003547 1780.350283 3055.425711 3153.211178 3276.948964 3424.928704 3602.999194 3839.246118 4228.030331 5063.223574 6579.311024 2592.914095 1703.049357 2771.092267 2864.644766 2985.192521 3133.397045 3317.943686 3569.592441 3979.839529 5036.241136 6411.584746 1547.793221 550.413373 2515.729373 2602.251509 2713.127085 2846.827288 3003.623407 3184.056847 3366.468572 3498.875539 3037.978927 449.592959 1174.031474 2289.439083 2366.911567 2464.031262 2575.868114 2694.129195 2799.439182 2837.618910 2682.716142 2137.945755 1293.948921 1375.980554 2093.511711 2161.502074 2244.384789 2335.310430 2423.259764 2488.704205 2498.226961 2411.303753 2242.224179 1760.070622 2055.303091 1929.726956 1989.233300 2059.857202 2134.619990 2203.826766 2254.500646 2272.923647 2255.852013 2276.106028 2035.789436 1688.365886 1799.842660 1852.713396 1913.835911 1977.112447 2034.929799 2078.981376 2103.322530 2110.510767 2162.502706 2113.392043 1861.351981 1705.763088 1753.954586 1807.897011 1863.106068 1913.043662 1950.664735 1969.202512 1960.749205 1926.638148 1784.494746 1255.181803 3773.994218 7301.285484 6110.931963 5425.557116 5653.249515 6108.262095 714.361819 2364.394616 1285.571721 2289.715495 1617.447692 -699.235314 -5989.272361 4433.518756 6038.337742 1911.377817 6902.026726 4392.205037 3206.488014 5273.697632 5394.233759 947.909071 3012.341788 -2635.456692 -85.691100 3059.909129 -477.793461 78.903613 3783.324889 5788.215111 5244.005144 2852.232980 4636.198506 4193.218870 1808.597965 6956.185765 5426.251091 5046.234312 719.362150 972.317858 230.644107 1233.099841 6770.839582 5898.463787 6816.497521 5621.587839 6856.604061 8064.233247 4276.411179 889.260157 2584.711792 1153.549806 3877.592984 255.017524 197.277781 1957.601175 10517.656393 12128.342176 6708.659368 5372.237427 6957.698765 6693.799867 4927.454698 3466.351462 4154.545152 -859.234856 2903.541459 4264.228366 -89.096352 1181.412687 7182.421350 11111.211841 7903.235635 11605.859329 9725.126833 7085.830451 8290.917375 7295.939804 703.905270 5389.751271 -145.189808 2388.668346 1879.162278 401.813318 16632.909638 9866.386067 11119.588022 7351.012516 6032.066833 5455.206692 7123.462673 6858.510209 2321.338437 3327.479995 2080.747479 916.898842 1247.703756 513.073089 14556.485337 12231.616400 11736.364828 10849.720785 6804.997589 9463.776995 8561.508915 6310.031276 -2907.618934 1928.295367 1357.531021 5144.841844 2552.303380 1643.554857 16822.307695 19512.879853 9720.924362 8439.931874 13212.261125 10213.598921 8092.797672 2821.309526 4937.972335 7079.228474 7005.700533 3566.582341 5805.492678 1799.303322 11425.944950 14690.434278 11540.142021 14172.247475 13178.893047 6743.352969 13119.858638 9621.726661 9716.328870 3304.819001 9074.328754 3307.814248 463.268249 1177.155688 12835.598520 18077.111334 16511.839255 11560.833887 8373.286998 7185.608745 11712.586319 11495.554235 6205.166182 3616.898312 4688.396545 2128.292644 3642.587985 7380.434765 16848.520310 7993.854760 15173.972030 19252.690248 7130.075281 8506.824123 11222.378187 11042.044676 9696.053602 7464.707677 8784.796110 6188.653953 10044.644714 5681.660674 6416.344505 10660.664715 213.459179 11646.223792 5796.632971 8530.185323 13022.634464 11239.479540 10527.367871 11958.254844 3906.764644 8075.275096 4391.700691 5359.547505 2370.715854 5113.550450 2537.412822 1292.211424 5261.586068 1785.219065 3466.849186 6764.511804 6591.401867 7602.800761 4459.020587 7647.973715 3258.380528 9684.864095 8344.088584 7386.153991 5241.146899 2943.465635 2824.470523 288.180481 1901.328056 1254.546531 534.419434 565.539999 5980.479150 596.003989 4789.657438 -580.104895
</DataArray>
<DataArray type="Float64" Name="Velocity" NumberOfComponents="3" format="ascii">