<VTKFile type="PolyData">
<PolyData>
<Piece NumberOfPoints="1945" NumberOfVerts="1945" NumberOfLines="0" NumberOfStrips="0" NumberOfPolys="0">
<PointData>
<DataArray type="Float64" Name="Pressure" format="ascii">
 18168.322966 17729.516544 17786.946566 16000.176831 18004.901569 16533.218502 19177.368505 17681.200083 18812.450149 16809.121790 18439.078798 17242.700599 17237.751444 15237.827799 17810.251549 16601.895671 18847.733328 17243.605593 20100.602179 19221.102292 19108.608641 18257.725137 18814.482641 18189.309548 19656.256192 19143.440820 20827.039491 20046.706900 21748.545184 20666.751022 22148.458481 21255.078000 21809.195617 21190.318178 22763.986932 22130.160957 24102.161704 23022.845081 24266.900212 22847.212767 24277.823590 23588.219692 24163.628945 23330.376600 25251.906864 24915.296089 26471.121376 25801.641498 27226.423879 24594.561455 27795.593513 26300.687354 26592.451243 25279.273912 26174.897636 25202.020432 27158.385945 25949.764603 27832.999114 25322.139476 27791.368751 25201.739486 26248.303112 24263.318454 25123.721314 23708.011311 24429.919451 23032.128666 25417.025518 24085.449245 24588.127707 23229.938149 22854.763777 21150.238813 22591.452977 20560.227554 22606.021499 20845.227679 22197.653856 20762.599258 22358.302830 21006.009322 24186.745367 21949.224633 24279.716811 22602.182027 21153.167160 21027.551450 20011.979911 20278.127702 19418.317811 19254.397798 23033.529456 22037.137649 23935.997860 20186.548038 27785.942458 23879.663109 32859.276854 28826.300176 37944.512626 34050.063206 37741.295140 24822.398989 34126.462035 22068.207234 34308.607564 26034.594675 36624.085667 32281.968134 37373.336626 34822.770999 36484.727809 33579.035829 36096.347923 34280.346832 35537.676251 34098.443390 34860.881414 33809.967545 34041.185580 34024.337830 32480.197917 32679.260433 30419.327635 30234.099187 28548.919709 28485.682125 27017.457824 27230.125947 25627.475793 25851.469472 24316.557088 24477.773120 23142.437819 23242.451755 22173.499483 22325.323028 21364.204874 21654.058338 20581.116001 20966.311659 19730.985915 20108.356896 18823.704459 19146.850238 17918.039172 18223.471303 17039.973055 17371.774038 16168.626459 16519.939309 15279.387337 15607.009905 14378.243581 14648.645708 13495.142925 13708.679786 12655.494124 12833.066955 11863.842201 12021.652427 11110.428685 11250.557362 10386.051445 10504.233847 9688.958344 9784.339103 9021.665179 9098.496568 8385.561911 8449.235768 7779.328574 7833.139142 7200.815395 7245.870021 6649.198961 6685.911873 6125.558773 6154.748588 5632.126298 5655.212400 5171.191156 5189.920807 4744.295217 4760.401585 4351.885101 4366.791506 3993.397748 4007.992767 3667.683657 3682.234891 3373.588791 3387.853958 3110.456197 3123.950430 2878.357635 2890.643939 2678.013674 2688.891158 2510.503607 2520.058232 2376.919147 2385.458294 2278.226468 2285.602687 2215.647278 2221.508381 2189.157734 2194.822083 17431.246016 16581.717320 15204.610201 12870.587671 8866.669103 4729.865394 1593.662715 912.944139 1675.683220 902.942083 -2503.080301 -3625.323105 -1838.092506 -112.680381 -1860.102318 -5275.774600 -4808.707904 -3715.405505 -4656.034646 -7831.361718 -8863.994149 -8523.534240 -8138.877817 -7743.919442 -7293.960528 -6795.416955 -6262.919012 -5712.074518 -5157.461142 -4611.821045 -4085.704436 -3587.368836 -3122.836081 -2696.052926 -2309.122821 -1962.583090 -1655.702976 -1386.779938 -1153.415887 -952.760865 -781.717609 -637.105391 -515.785100 -414.749711 -331.185294 -262.508015 -206.382549 -160.728434 -123.730771 -93.934743 -70.949459 15108.374447 14059.215332 13147.374069 11288.468635 7211.564230 4067.188975 1709.582021 749.533659 1765.577355 948.352503 -2579.842764 -3935.922905 -1584.400535 366.056269 -977.577088 -4520.181003 -4459.728568 -3611.452905 -5767.535082 -8917.703815 -9031.074144 -8446.774282 -8121.783046 -7732.033900 -7284.688175 -6789.152451 -6259.807837 -5711.920892 -5159.883985 -4616.356396 -4091.868268 -3594.694673 -3130.897461 -2704.476813 -2317.596820 -1970.857678 -1663.589554 -1394.145683 -1160.176517 -958.872411 -787.168098 -641.907067 -519.967568 -418.354145 -334.259721 -265.103471 -208.549228 -162.506948 -125.108663 -94.581518 -68.569496 2226.622534 2226.723197 2220.037525 2199.808779 2159.701203 2093.517407 1995.785519 1861.543184 1676.711530 1393.429856 1048.542243 916.989611 897.895149 836.742299 767.670972 697.506937 627.633101 559.298523 493.664738 431.713639 374.185799 321.564265 274.090364 231.797754 194.554320 162.104879 134.110400 110.181509 89.905535 72.867221 58.663789 46.915263 37.270964 29.413057 23.057895 17.955755 13.889471 10.672325 8.145492 6.175248 4.650118 3.478065 2.583809 1.906346 1.396676 1.015778 0.732832 0.523656 0.369344 0.254817 0.166185 2200.501207 2200.668633 2192.284189 2170.152009 2128.071647 2059.633333 1958.323191 1816.536234 1624.858271 1385.038242 1147.188591 1000.284896 911.687471 838.224233 767.815798 697.570696 627.873197 559.756333 494.321276 432.527567 375.108569 322.548239 275.093339 232.785126 195.499677 162.989592 134.922666 110.915152 90.558777 73.441552 59.162997 47.344632 37.636650 29.721617 23.315933 18.169678 14.065323 10.815679 8.261392 6.268188 4.724042 3.536387 2.629449 1.941770 1.423941 1.036582 0.748560 0.535444 0.378230 0.262527 0.179634 -56.049562 -49.413635 -52.220975 -46.227421 -42.015583 -38.987409 -30.825069 -30.552080 -23.075957 -23.181109 -17.260461 -17.396257 -12.849852 -12.964183 -9.512886 -9.602725 -7.001935 -7.071190 -5.123944 -5.176835 -3.727995 -3.768096 -2.696740 -2.726938 -1.939571 -1.962160 -1.387031 -1.403817 -0.986262 -0.998654 -0.697328 -0.706418 -0.490269 -0.496893 -0.342767 -0.347564 -0.238312 -0.241763 -0.164775 -0.167243 -0.113306 -0.115059 -0.077490 -0.078728 -0.052709 -0.053578 -0.035661 -0.036267 -0.023999 -0.024419 -0.016065 -0.016355 -0.010698 -0.010897 -0.007087 -0.007223 -0.004671 -0.004763 -0.003063 -0.003125 -0.001998 -0.002040 -0.001297 -0.001325 -0.000838 -0.000856 -0.000539 -0.000551 -0.000344 -0.000352 -0.000219 -0.000224 -0.000139 -0.000142 -0.000088 -0.000090 -0.000055 -0.000056 -0.000034 -0.000035 -0.000021 -0.000022 -0.000013 -0.000014 -0.000008 -0.000008 -0.000005 -0.000005 -0.000003 -0.000003 -0.000002 -0.000002 -0.000001 -0.000001 -0.000001 -0.000001 -0.000000 -0.000000 -0.000000 -0.000000 -0.000000 -0.000000 -0.000000 -0.000000 -0.000000 -0.000000 -0.000000 -0.000000 -0.000000 -0.000000 -0.000000 -0.000000 -0.000000 -0.000000 -0.000000 -0.000000 -0.000000 -0.000000 -0.000000 -0.000000 -0.000000 -0.000000 -0.000000 -0.000000 -0.000000 -0.000000 -0.000000 -0.000000 -0.000000 -0.000000 -0.000000 -0.000000 -0.000000 -0.000000 -0.000000 -0.000000 -0.000000 -0.000000 0.000000 0.000000 0.000000 0.000000 0.000000 0.000000 0.000000 0.000000 0.000000 0.000000 0.000000 0.000000 0.000000 0.000000 0.000000 0.000000 0.000000 0.000000 0.000000 0.000000 0.000000 0.000000 0.000001 0.000001 0.000001 0.000001 0.000002 0.000002 0.000004 0.000004 0.000008 0.000008 0.000015 0.000015 0.000027 0.000027 0.000048 0.000049 0.000084 0.000087 0.000148 0.000151 0.000255 0.000261 0.000437 0.000447 0.000739 0.000755 0.001237 0.001262 0.002046 0.002087 0.003348 0.003412 0.005420 0.005520 0.008679 0.008831 0.013752 0.013978 0.021569 0.021880 0.033545 0.033817 0.052052 0.051287 0.083138 0.073908 0.114790 0.095793 0.129414 0.108367 17064.297198 13884.650899 17260.323276 12883.720836 13605.080303 12606.770587 14233.044496 11681.146920 11025.361105 14931.562554 7898.880860 14402.089894 15370.074466 15994.993276 14597.687990 6441.791499 13239.939923 12565.542622 8234.568659 10679.443641 11470.305156 13764.668676 18032.683794 15091.613493 18596.963039 15911.585731 14586.561148 12691.434130 12636.674424 10070.620467 6244.604109 10588.526281 17181.641089 18440.300804 18258.442800 18108.905560 18738.872919 18207.444904 15870.657332 13774.734207 10370.269212 17948.532200 13933.307350 11168.496882 21342.457448 16121.202297 20071.384317 19871.082370 18946.733549 16110.733602 15603.434419 15753.835850 10249.763010 15881.083627 11063.882365 22181.669863 21000.285164 20632.392531 20931.235217 19332.389882 17807.318903 18877.631215 18559.952286 14376.936359 8380.741936 17273.622521 19948.744610 21452.902936 20993.154577 23306.730158 17836.867096 18125.090423 18245.981655 21787.635076 18780.317510 22110.274757 18057.388395 21826.581731 21061.729891 21028.025298 22944.103716 23442.619620 16975.477340 20939.406431 16824.576087 16593.289948 18733.266574 13948.744742 20813.453020 24879.318069 21963.923633 19127.469868 23320.124012 22474.406342 21460.158303 24228.837296 19219.835002 16822.877018 15908.336291 23266.310706 24254.385625 24060.010282 21736.488505 19608.666633 24157.809978 21516.087430 20591.479435 16058.691436 13743.408415 11550.436114 24834.039954 22507.853137 25952.091969 18149.365056 23598.887631 20662.270817 21654.937079 15225.480587 13740.539357 11557.544200 9185.762493 24061.635553 23591.033449 23705.677527 23347.350692 19794.073167 17499.211626 14353.810658 15931.749485 12910.046993 14161.203349 12079.075686 23451.621606 19910.173428 20026.626584 18397.481015 19914.481408 18197.181241 17610.284861 16591.340732 11875.503185 14180.440757 8691.471353 22386.071451 22991.921947 20527.634945 21983.593321 22403.709545 18259.257325 17409.652704 14044.779356 13878.976507 6007.325561 4541.656957 22700.130132 17873.852026 21200.618695 20059.465856 18802.303796 17327.383023 14829.779319 12539.130446 6657.859636 6543.405509 4140.457603 22561.293533 21174.998827 19865.004303 14664.817001 17395.534697 10800.838627 11016.532347 7976.339414 4248.547135 1097.908646 3875.175403 20449.034768 20672.793881 15960.065137 17612.016178 15210.830278 15239.527416 8390.633028 13020.004335 1509.145212 1367.040622 1034.896199 20440.736634 18542.538333 18914.418292 15027.222417 8240.539027 6243.126968 9439.737824 3448.681691 4056.059990 930.841194 325.945537 20308.340400 18682.286755 17421.608604 14639.420274 12338.445559 12030.892062 4495.042692 4938.526636 4629.220874 1338.470579 2251.288047 19916.019530 19097.698198 17563.758891 16065.161995 9393.948473 12908.722420 6730.322027 4053.911939 678.086785 3969.663437 1570.209679 20610.656820 19173.081245 16624.432648 12728.356463 11634.029628 7515.277215 7741.475957 2065.238488 1391.352982 2698.209801 303.212765 19110.615793 20170.938258 17120.265236 14966.105596 11652.168950 5247.066254 3854.468520 2997.166723 7426.017160 4599.560775 2934.375256 21021.041297 19693.068279 17017.255974 14320.855473 9152.517222 10051.889771 8262.982517 5316.405223 -569.026200 5745.255553 2206.529966 21363.489717 15521.307980 16123.432158 12829.839392 11207.686762 8197.667401 6162.376394 4488.074413 2341.467887 486.842596 1122.368288 19041.410538 16559.364159 16039.825246 13250.598928 11098.686252 8785.212113 5990.646180 2480.927947 4389.445284 3278.672033 2705.469104 21275.402196 19653.643830 13070.740071 13575.218172 12995.924996 6805.847221 6787.764336 5677.743995 5193.185186 2052.751201 2719.651588 16262.680654 19516.373970 12796.331708 11755.832304 10699.327411 9096.599888 5143.696560 3649.069407 4068.915470 4139.819110 4565.833284 19000.844078 17652.054884 15916.659910 11618.147833 10877.118319 11225.175354 7809.799643 5306.841867 3425.001229 2703.606180 3569.497022 20540.543333 16410.564395 10924.478870 13970.982328 11964.108500 6282.189984 7769.374736 4537.398823 5294.482165 3101.668204 3113.266390 18987.189355 18795.816143 16692.962648 11353.651804 10440.840407 5720.492869 5211.877067 4388.776113 3758.866513 3227.446837 8082.241303 19270.465803 15428.711849 12085.752899 11932.970889 8526.248613 7010.235831 9219.272446 2133.085058 1779.051122 2738.851174 1556.579115 16909.698670 14433.108514 13101.358249 12995.084533 10930.306126 7781.119932 6646.600927 4897.152032 616.110481 1611.058012 1506.511207 16289.719994 16061.350239 14412.135245 9918.514674 8132.507407 9633.981189 7065.920323 7628.128927 2047.719377 5601.342594 2386.526737 17443.733608 12710.128229 13932.244895 8795.113670 8774.752663 6269.339669 7370.169759 5490.665496 1022.394901 4154.234134 -171.832001 21004.135206 15490.264392 12250.526330 9895.829379 9785.226313 9727.439744 7610.685853 6333.868748 4076.347771 7862.242735 1676.150223 21152.954088 14773.061375 12442.394573 12130.306219 7719.874575 9068.181385 7507.131077 5183.519936 2600.011580 4027.205794 5579.025225 16596.078626 15527.788689 14970.669933 10178.382072 7720.554461 7197.403774 7587.217664 4776.736442 4314.530540 4972.065921 2892.892829 19123.901380 13899.097531 11992.672702 10223.794586 9752.816590 9057.500981 6110.047064 5402.439094 3778.448737 1036.334929 28.259452 14462.701262 11920.000163 11880.450627 12086.540288 11470.315534 8282.287936 3993.788968 1091.757602 5334.112657 1878.131200 2513.161909 11399.115242 15649.061678 13899.285510 14796.248253 9227.708555 8667.095029 6162.880527 5336.340326 5686.104363 2214.506213 2658.308056 9394.337569 6833.421331 10799.537076 13564.771044 9130.339456 7740.819597 7707.022161 6280.418796 4132.286556 5553.948733 2326.666006 11170.970056 8252.613261 5407.874815 11326.412865 12194.502939 9440.822493 6110.728901 8583.552148 5825.971521 6090.105942 1404.772076 10389.063182 9266.873956 10398.229557 11376.846489 11862.891039 9754.085697 10591.791284 6276.970289 6651.251181 1143.733547 871.364763 1818.908404 5604.775170 14078.178692 12644.876236 11457.178978 9685.239479 9384.799371 8789.444500 7622.928154 877.822279 1744.286307 9621.999976 9381.768538 11631.137443 12525.137447 12806.405948 12683.505537 9747.931145 5516.229231 4945.617828 3796.228779 -2252.658703 2608.957923 8556.839982 10736.711213 12543.962919 12026.311671 12160.742524 12977.569552 5844.744250 7429.902103 4882.125923 5782.941515 2373.930296 2550.439980 3716.024228 12987.852572 14862.635747 15434.828761 13743.461280 7829.956769 5647.736425 3878.436235 5185.951345 2214.801425 3451.842433 -917.925033 8363.574949 13775.240748 11464.388809 10908.639662 9631.516505 10419.610561 7031.664184 5329.355432 2453.451990 2390.374647 5356.241483 1610.447263 9326.469143 14351.347981 9799.668853 8207.962521 5829.758844 4072.113828 7215.486116 -3283.839019 6413.687691 2268.811650 7667.150775 13876.270193 13309.303936 9715.015222 5738.749791 5828.519658 7228.494251 3017.356545 1603.528540 -770.626165 2630.602425 6559.258422 14379.590931 13608.782519 12350.938380 6572.251397 7757.277612 5846.296363 7980.118883 9757.173502 2020.723322 7316.642065 5743.404975 9378.066167 14236.164525 10110.354731 7825.681732 8309.218753 5283.827705 429.915387 17499.907249 4957.229753 2502.541404 8292.380996 11914.242266 14117.972292 12059.838183 8639.800662 8975.984339 5221.836902 3301.324251 19378.208597 -4992.879739 8451.228965 15177.637253 15503.893097 12498.546707 8436.573752 8198.128103 6422.112334 6967.767946 6398.169533 19286.625621 5705.209675 7905.951736 7526.409172 3042.261791 13217.252562 10254.487281 11553.299561 8857.450101 7596.605628 2172.540316 25978.937253 10782.324253 2231.319868 7891.869767 13408.309073 11596.628777 13408.216249 10319.106224 6784.627817 8546.862323 3853.527790 27149.405410 12209.192814 14682.023985 8765.634891 10182.836015 12195.250865 12044.157288 11970.189068 9687.926028 2937.794347 5440.145364 28451.219214 17982.806571 5316.999687 10812.004959 7906.377160 11706.872739 13549.882999 10325.983753 11073.838665 6901.373191 3169.325838 33343.771700 27896.805783 11335.267098 1591.770799 22874.661985 8628.253403 12262.212929 12459.309675 7907.275456 9201.705901 5238.334980 31013.949643 19393.297132 -4215.550056 1093.611210 1850.952730 17415.459522 11593.393547 12365.799980 9322.575505 6912.845197 11221.567645 27052.074453 16601.581286 1972.294544 3990.828370 5709.369174 9767.412015 14887.957713 16438.454902 10586.808559 8045.853138 5310.216982 27551.101658 25332.461570 18657.193859 16220.234395 11732.456766 12278.611918 16225.228665 13107.703532 10572.881517 9933.367927 2794.114703 27426.558759 27188.205866 20047.408236 7975.152029 7353.827903 11125.878390 12087.333791 13322.737849 9271.489736 6783.324711 10190.933663 25602.325365 23443.200887 16973.105415 10824.938206 5922.280212 11792.910330 15058.788875 15038.192764 10741.376965 8798.011349 6269.358218 24288.804262 22834.950860 16226.359040 4136.903643 7850.631060 6788.332045 8926.846282 9358.251934 9683.019877 10561.680613 -9035.963841 22823.805268 20611.654052 14840.083030 7477.500452 8119.737016 6664.940393 8868.466476 11829.853345 12011.532672 10481.125114 12318.922959 22229.817845 21259.883083 18032.623203 12443.938654 11363.282972 8486.343149 13824.562116 15365.303568 10555.945888 12696.664185 7927.518818 22110.295460 22606.176956 22709.081417 20296.530245 17124.053607 13410.765395 11373.150802 13299.243360 13791.547103 9210.757070 2412.974511 21767.078791 23174.631371 25424.159585 24301.378865 6818.522990 2994.746781 12906.297600 10568.090123 10630.246336 12440.954441 1268.522028 20866.363497 21982.145778 22908.165182 17170.494606 -195.703385 5962.685094 3791.852062 9425.632039 16984.945661 13053.707292 10972.370842 19717.456297 20130.107617 19050.255500 13358.976605 3169.338310 10706.180574 4409.507179 9792.709156 14325.465860 11729.697553 7195.922764 18784.643249 19274.874470 18968.525704 16168.715674 10797.279051 7649.331771 15839.123212 12146.095847 11533.903416 9881.594037 10551.246158 18089.433398 19186.820260 20847.337586 23361.252996 22840.671224 8752.122221 12020.881407 13428.139820 10613.406786 9523.631976 6088.722100 17350.018670 18832.382133 21583.624457 26515.099338 29742.360020 20119.102749 8355.291522 9102.652274 13128.712029 11922.060575 733.549766 16386.372702 17745.612573 20088.415348 23005.526905 17521.115851 -2862.039123 672.158277 6478.853049 8046.614368 10341.906271 8908.239545 15264.061762 16184.232569 17151.069458 16466.783512 10544.641227 2483.159392 3468.898200 2842.265288 10961.796563 11679.811627 11780.358933 14174.720835 14783.848552 15186.299545 14321.045120 11217.711212 9866.100631 8237.164392 11830.789220 8258.992623 11795.057181 -359.814064 13227.805608 13792.514176 14477.722665 15109.873762 15481.381281 15762.134752 11900.289793 12136.187421 7927.201052 9092.445850 8874.848320 12391.297293 13003.163071 14038.150873 15919.099905 19254.914791 22397.088179 18502.116734 10725.771569 8692.087887 8052.191444 10906.253467 11587.248522 12167.028765 13171.027559 14880.425209 16864.881409 12202.945727 -3462.600386 3205.977211 6532.722467 6979.518800 7057.572579 10784.721489 11244.613581 11948.648099 12792.312435 12890.021017 9556.138797 3581.175687 3152.374494 3292.137295 7173.846004 10466.944027 10004.643908 10342.162273 10805.591869 11268.149533 11279.599521 9639.660848 5991.780914 6290.973000 3904.008788 9355.075339 5479.087748 9273.349554 9537.104484 9919.080308 10452.639991 11183.664737 11759.961136 11096.512254 7017.897125 7252.091626 8893.574147 6439.683769 8594.632596 8821.797235 9192.673941 9865.849948 11276.534469 13938.864806 14232.430111 6345.246332 7371.069182 6828.579938 3859.781865 7956.409296 8153.426067 8487.801401 9103.883579 10289.685475 11947.789776 9729.689490 84.451453 7462.994844 10509.641283 6901.803607 7347.773395 7507.206885 7765.451382 8191.077040 8851.111074 9596.866041 9147.400707 4877.830883 3583.705524 3086.483856 7517.230726 6766.448746 6885.253841 7061.122819 7312.560997 7641.435105 7977.105762 7880.640618 5733.648561 5352.658943 4253.339169 5510.556638 6216.026634 6299.077162 6409.116775 6543.551075 6686.375684 6780.480256 6523.162034 5038.602092 2766.229986 2539.968666 5840.989881 5701.203048 5757.296783 5822.235756 5886.898524 5942.903111 6008.912397 6084.688720 5134.989027 3759.328281 2289.112886 5034.208380 5225.321292 5263.781703 5301.220572 5325.111585 5320.582910 5269.933912 5098.823032 4162.395126 2406.098261 2074.654716 5056.409017 4789.732212 4819.065516 4843.855585 4850.336358 4816.370744 4698.224974 4411.881165 3875.320382 2861.621644 3738.664968 4760.952310 4393.714797 4420.758899 4445.147638 4456.511668 4438.568279 4362.073999 4170.638683 3785.705704 3117.440762 3007.680189 3646.443992 4034.746001 4063.548022 4094.735758 4124.628209 4151.372445 4176.546899 4197.455267 4131.291521 3703.151861 3453.260829 2701.268332 3709.388249 3740.557754 3778.773426 3826.104913 3893.545887 4015.644409 4289.518347 4834.129743 4828.460952 2188.577249 2309.004892 3414.626132 3446.007313 3485.872506 3537.484821 3612.865196 3746.103911 4026.792913 4567.019920 4371.094097 1420.894889 1648.828024 3148.974332 3177.427747 3212.158529 3253.342823 3303.533291 3366.295098 3424.754976 3337.525912 2534.753545 510.361706 1361.746242 2912.765466 2935.930470 2961.224244 2984.844357 3000.289665 2991.540455 2911.968641 2653.308214 2097.698950 1336.835758 1025.015742 2707.624413 2724.699181 2739.801947 2746.807749 2736.025902 2690.686559 2583.395218 2385.805564 2117.541252 1831.814003 1876.039892 2535.644475 2547.167284 2553.621654 2548.408646 2522.584199 2464.660007 2363.144698 2214.538714 2018.272396 1751.677215 1863.512792 2398.804040 2406.039450 2406.018816 2392.713098 2358.838555 2296.986973 2203.361556 2086.798218 1979.659076 1834.778593 1749.280863 2299.005670 2303.265411 2298.470321 2279.832285 2241.073512 2176.272661 2082.087921 1959.822107 1813.345863 1604.561851 1250.142270 3202.740436 15425.859948 11333.116838 10222.500080 12340.978707 13209.931841 9356.910766 6919.008154 5621.043669 3275.562181 5444.823454 1634.328660 -2958.952873 -4446.502788 9385.522358 2395.980774 9948.698100 6308.405914 8075.254290 11032.966647 9429.382342 7801.838333 4353.188834 2434.237279 1732.042244 2098.397807 1647.764600 -1558.206451 5702.900483 11461.873375 11258.911081 5654.955418 7950.845265 8269.906975 4340.880854 4587.403314 7428.657361 2805.123570 1783.894493 4394.315326 2787.123236 2312.542343 16140.156060 8668.203903 11305.600997 13961.681364 13008.392711 12717.644547 11743.016861 5553.857519 3499.920410 5111.269244 5893.016816 4487.804849 1370.190460 2256.159369 15563.350415 15231.867115 14127.212088 8267.001284 9559.605192 12809.260676 7458.910649 4840.686444 6018.965447 4468.505645 4040.955177 5489.330128 2932.603639 2568.702618 11125.351551 10650.153308 12268.725192 14740.827751 16687.532199 8372.121709 11891.227282 10653.494462 4247.378905 10265.458603 8667.057679 3795.600500 2952.892816 5285.572850 20037.003791 10058.689402 15582.526634 13397.644652 5340.978886 8123.296095 14829.827994 11258.934682 5894.393335 4723.323124 6478.019373 5920.327446 3491.451169 4001.380272 15755.259668 17685.245606 16430.292335 12849.302456 9219.868718 15279.524888 13150.055208 9898.244037 5408.111850 8150.870592 6079.201205 4912.424620 5250.707717 4191.854514 18495.907263 18501.377832 5283.231490 9941.624562 13586.332343 9946.064051 11490.341119 5513.939136 8080.499431 13829.053900 8969.804612 5211.101674 4421.349670 -1076.766172 11891.264341 12158.683790 8271.016000 9022.469287 14393.461872 6687.621192 10700.008241 7532.904861 8941.060192 6358.605106 8694.564375 3219.789739 3801.176210 -1678.019051 7842.671636 9848.229375 10979.048388 6149.193292 5528.462046 9125.655508 10684.998082 8599.760249 6724.355569 2326.851125 8868.092161 7707.772053 3421.306540 2209.919898 12862.121656 5331.413755 8178.209147 12660.412029 4649.641777 6668.220458 5601.536602 7380.223759 7091.741480 6276.521079 9239.314307 8942.829007 7564.015922 1710.194358 5386.680160 5211.109300 1467.885826 7257.581323 4321.828331 1641.134897 11036.646361 7423.361946 9781.583053 11054.912808 4943.492107 5288.935248 4908.506920 4866.683420 1519.101489 2969.445866 2493.029662 4450.911635 2590.758547 3013.313827 1486.121375 1434.170771 2298.929522 1981.896344 2426.138143 3128.026308 4695.516334 4066.438876 3875.036703 3875.104616 2173.986265 1275.876997 3497.412305 1446.380862 2071.603762 1897.662747 1367.731909 3228.038907 3567.309449 3177.657271 3031.987910 3001.394983
</DataArray>
<DataArray type="Float64" Name="Velocity" NumberOfComponents="3" format="ascii">