<VTKFile type="PolyData">
<PolyData>
<Piece NumberOfPoints="1945" NumberOfVerts="1945" NumberOfLines="0" NumberOfStrips="0" NumberOfPolys="0">
<PointData>
<DataArray type="Float64" Name="Pressure" format="ascii">
 44617.513402 39304.600205 42012.601092 35876.981100 44580.917485 39098.926999 39717.817274 34491.291326 34071.632272 30050.317761 33698.264745 31055.382600 36710.758555 34484.101685 36316.402178 31492.540132 39721.855134 35971.656106 37423.156019 32679.720632 39266.663891 38093.208964 36328.149591 33526.241808 33106.747855 29359.886636 32605.482753 29762.946728 33865.195425 31816.464918 34967.240639 35139.654946 30098.100779 30585.244661 30567.493891 29705.730884 31983.161177 32691.127807 29405.361481 30117.050462 33473.443385 34035.940093 33927.934992 35471.788348 29088.396411 28991.597530 35752.050709 36793.366214 33241.501522 35937.430311 32358.660780 33655.985236 32892.864744 34977.944722 33534.634869 34735.682222 36440.212601 37688.120661 33428.515754 32809.358142 36364.212340 36553.940855 36443.103077 36083.228987 34401.326199 32869.642764 36830.002561 35396.231247 38538.449714 37362.698116 38961.931860 37824.742225 42708.026198 42532.589483 37497.744667 39031.130415 32283.076086 33081.399739 33973.932808 35044.938906 37544.862522 38538.279288 38862.960888 39959.189186 38677.403810 40550.385113 32759.186070 34958.525189 30926.783186 32933.831087 31848.545619 32730.759342 35561.336942 36414.470269 34634.018308 34745.014887 36747.570907 37339.733965 42630.120029 43975.272679 50568.510536 56480.827350 48023.572632 47750.558792 36095.766020 30181.632499 26970.867828 22241.970094 24576.722792 22015.392358 26051.096283 27756.910302 25493.921459 26599.708126 23317.691561 22576.780944 22080.980316 21297.015251 22014.725632 21931.985071 22254.364189 23090.411808 21879.578833 22753.544492 20856.512716 21065.347489 19820.262522 19751.927312 19060.946102 19205.014057 18410.938050 18780.400477 17676.834127 18030.609883 16890.325107 17103.989252 16188.162245 16350.980196 15603.110558 15810.827103 15055.033066 15308.311478 14461.295674 14692.361034 13814.480629 13980.027131 13160.356907 13283.226166 12531.145333 12652.924293 11921.379965 12056.723922 11312.201834 11449.641687 10698.215769 10826.706236 10088.306505 10211.592793 9490.634761 9618.696732 8904.715980 9041.360557 8326.191573 8467.387837 7754.122810 7894.476879 7192.105172 7329.728455 6644.357596 6779.910420 6112.740362 6246.127189 5597.444027 5726.456210 5099.432335 5220.925627 4621.775477 4733.408240 4169.046126 4270.013823 3745.800514 3836.563833 3355.338440 3437.035294 2999.186527 3073.159592 2677.179014 2744.667063 2387.890932 2449.827826 2129.243029 2186.170581 1899.127501 1951.257084 1695.897049 1743.296707 1518.597946 1561.409868 1366.929321 1405.519443 1241.012230 1276.018668 1141.092324 1173.366707 1067.493910 1097.162927 1021.209928 1048.119639 1002.744197 1029.113256 36412.048129 34046.021200 33697.558126 32127.001509 27898.161072 25161.987125 23069.552288 17152.365925 11112.439899 7594.582761 4939.789365 3400.616037 1017.431756 -3693.635143 -4208.928382 -2823.052368 -4188.338675 -7461.407492 -6809.062596 -4914.523118 -6402.079168 -9687.843854 -9653.753323 -8405.366023 -7236.876887 -6194.173450 -5263.883420 -4443.000538 -3724.090552 -3097.960762 -2555.791337 -2089.682917 -1692.445942 -1357.264439 -1077.488036 -846.586779 -658.217447 -506.337147 -385.316548 -290.027134 -215.893860 -158.914622 -115.652328 -83.206406 -59.170079 -41.578794 -28.854203 -19.747381 -13.285260 -8.730960 -5.619196 32495.689300 30049.263220 30730.442387 30085.099814 25037.181709 23987.601459 22623.785006 14935.358084 9348.604554 7515.886030 3880.516262 463.096105 434.295492 -5038.064680 -4324.699263 -2989.949486 -5875.451744 -8540.459951 -6553.761336 -5201.394189 -8237.076074 -10888.997198 -9641.779852 -8363.643140 -7251.882624 -6218.027531 -5288.539051 -4466.030830 -3744.838674 -3116.465543 -2572.297671 -2104.423854 -1705.583737 -1368.902630 -1087.701890 -855.448521 -665.809981 -512.757859 -390.675038 -294.440297 -219.480534 -161.790923 -117.928043 -84.982458 -60.536935 -42.615639 -29.628665 -20.315179 -13.686493 -8.961334 -5.447276 1097.312523 1164.481088 1248.092245 1339.564109 1430.552982 1511.982362 1574.327807 1607.038798 1591.216740 1475.787970 1227.048709 1025.641854 897.003976 766.370540 648.083029 544.366470 453.714347 374.877466 306.791908 248.505842 199.120217 157.754112 123.531973 95.586790 73.072874 55.182628 41.163085 30.329385 22.073757 15.869595 11.271019 7.908751 5.483361 3.756925 2.544030 1.702852 1.126835 0.737290 0.477066 0.305316 0.193295 0.121077 0.075048 0.046039 0.027956 0.016805 0.009999 0.005885 0.003416 0.001933 0.001005 1078.835304 1145.562915 1225.964534 1313.596244 1400.175464 1476.234879 1530.801874 1549.818163 1513.670467 1402.788807 1229.189265 1059.111655 906.453819 769.958380 651.056925 546.979526 456.066226 377.015962 308.743054 250.282124 200.726139 159.190731 124.800285 96.689904 74.017054 55.977452 41.820976 30.864798 22.502233 16.206853 11.532184 8.107781 5.632682 3.867249 2.624331 1.760452 1.167565 0.765691 0.496603 0.318577 0.202179 0.126954 0.078888 0.048517 0.029537 0.017801 0.010619 0.006267 0.003649 0.002080 0.001149 -3.792119 -3.003209 -3.460573 -2.767701 -2.492410 -2.165502 -1.525812 -1.500551 -0.969459 -0.981107 -0.616474 -0.628992 -0.389524 -0.398551 -0.244107 -0.250136 -0.151674 -0.155599 -0.093442 -0.095963 -0.057086 -0.058688 -0.034590 -0.035598 -0.020790 -0.021418 -0.012398 -0.012786 -0.007336 -0.007573 -0.004308 -0.004452 -0.002511 -0.002598 -0.001453 -0.001505 -0.000835 -0.000865 -0.000476 -0.000494 -0.000270 -0.000280 -0.000152 -0.000158 -0.000085 -0.000088 -0.000047 -0.000049 -0.000026 -0.000027 -0.000014 -0.000015 -0.000008 -0.000008 -0.000004 -0.000004 -0.000002 -0.000002 -0.000001 -0.000001 -0.000001 -0.000001 -0.000000 -0.000000 -0.000000 -0.000000 -0.000000 -0.000000 -0.000000 -0.000000 -0.000000 -0.000000 -0.000000 -0.000000 -0.000000 -0.000000 -0.000000 -0.000000 -0.000000 -0.000000 -0.000000 -0.000000 -0.000000 -0.000000 -0.000000 -0.000000 -0.000000 -0.000000 -0.000000 -0.000000 -0.000000 -0.000000 -0.000000 -0.000000 -0.000000 -0.000000 -0.000000 -0.000000 -0.000000 -0.000000 -0.000000 -0.000000 -0.000000 -0.000000 -0.000000 -0.000000 -0.000000 -0.000000 -0.000000 -0.000000 -0.000000 -0.000000 -0.000000 -0.000000 -0.000000 -0.000000 -0.000000 -0.000000 -0.000000 -0.000000 -0.000000 -0.000000 -0.000000 -0.000000 -0.000000 -0.000000 -0.000000 -0.000000 -0.000000 -0.000000 -0.000000 -0.000000 -0.000000 -0.000000 -0.000000 -0.000000 -0.000000 -0.000000 -0.000000 -0.000000 -0.000000 -0.000000 -0.000000 -0.000000 -0.000000 -0.000000 -0.000000 -0.000000 -0.000000 -0.000000 -0.000000 -0.000000 -0.000000 -0.000000 -0.000000 -0.000000 -0.000000 -0.000000 -0.000000 -0.000000 -0.000000 -0.000000 -0.000000 -0.000000 -0.000000 -0.000000 -0.000000 -0.000000 -0.000000 -0.000000 -0.000000 -0.000000 0.000000 0.000000 0.000000 0.000000 0.000000 0.000000 0.000000 0.000000 0.000000 0.000000 0.000000 0.000000 0.000000 0.000000 0.000000 0.000000 0.000001 0.000001 0.000001 0.000001 0.000003 0.000003 0.000007 0.000007 0.000015 0.000015 0.000032 0.000033 0.000068 0.000069 0.000146 0.000140 0.000327 0.000256 0.000550 0.000388 0.000664 0.000476 37119.988361 32028.440749 32308.473607 30383.790299 28990.816735 28346.173550 28400.100348 29085.224950 27679.202520 24626.899962 24488.207597 30981.076437 28164.304981 29056.269362 34210.817953 26942.993535 31493.508360 30945.842075 24557.130113 23438.442524 25601.432684 22101.871882 33145.433719 29214.722616 33570.370151 35188.789494 27118.247461 26375.202151 24137.096928 20252.440419 20452.707567 19074.481605 22968.338690 30800.973069 36854.813000 27638.246344 28899.817124 26141.222142 31578.358912 26312.626253 21143.511230 26637.065230 23426.772404 21341.118340 30790.655583 30268.084095 28760.047803 30371.073764 32278.894753 25356.810261 26524.140727 22604.854768 26526.359537 21733.597895 20883.645093 32768.834234 31108.544560 28717.023751 30253.603465 29811.810960 27265.352031 27331.386489 23464.575334 22392.316136 15929.328210 22249.623609 28450.841097 30723.669742 29444.939234 28365.354593 26223.880709 26940.066126 25706.967578 22606.563746 21700.518000 23514.199997 19257.206186 30026.888625 30743.389390 30271.925647 28124.704712 28124.193186 27588.216232 23118.209502 20768.105350 22396.794709 19124.886561 18689.313541 29026.384956 31643.539280 30031.675455 26254.479331 27243.745338 26067.510138 28149.283070 26154.402942 24022.900160 20076.132849 18199.060300 33793.290904 31950.695937 30650.420524 29993.298991 27526.367499 27697.049736 25351.980316 21904.475054 21946.988664 17667.415367 17077.404948 32991.400886 29023.146077 31856.379527 24140.933949 30599.944418 24657.199234 27124.670869 20196.909058 23481.727513 17506.901857 18110.936431 33440.630092 33467.406275 30033.445537 31790.264377 25238.754692 24121.447743 23289.187950 21649.206802 19619.182828 21929.988700 19221.950051 33099.557016 30337.251508 30250.982398 26941.349709 26742.448594 26218.902840 25579.873953 22753.382269 22701.641620 18810.006611 19460.174774 32281.952848 31052.324689 30104.376453 31389.531551 28344.683394 25226.019218 27203.862716 26223.576684 21841.905360 16366.793361 8431.622508 33444.876373 34632.831745 32829.254713 29356.229048 27391.366452 27828.716288 22076.962172 21897.809460 14833.819270 16513.278452 6543.683764 34830.426126 33350.923683 28587.281344 28860.924125 24936.793381 24532.898248 20445.302838 18283.738494 7161.958177 1040.089150 2352.315183 32979.029601 32422.032468 28892.903093 31604.576649 28399.556147 26467.699710 20355.029348 20950.076192 2214.193733 4874.906763 15254.986654 34486.476447 32766.643313 29015.052418 27359.140127 25263.923302 20439.844724 18174.367213 12009.180077 5668.266544 3444.892674 12595.504561 32569.441607 32758.959513 30876.506614 30409.412031 26472.733144 23891.444428 14696.758672 10997.614222 4438.066343 7587.359038 15142.100648 31920.357192 34378.654133 31339.893824 28856.564769 25410.838600 22302.276014 16593.179481 9403.134332 5399.459314 -570.228460 5287.479464 33609.790832 33675.781147 30946.274906 28494.364877 26754.161260 23114.324827 14051.259268 5608.707276 2171.514245 97.197415 4274.127191 33497.638963 32373.363464 30705.240301 30519.203510 26390.491248 19727.250324 8822.057884 6241.558289 5561.988406 6561.991630 4567.879837 33025.472636 34102.500635 30448.398476 29913.117530 26030.672397 19862.216490 13968.069265 10011.088594 5328.340510 3942.710939 -894.420520 34043.839486 33942.065393 29625.011181 27029.742065 22053.212655 20397.180062 18174.011536 7008.359993 4283.215363 3450.449345 1036.127412 34160.171033 33012.827626 31521.873552 27797.446262 24770.694575 21504.871206 13860.151474 4877.661761 1867.393297 -461.442560 235.944872 37787.500479 32352.066678 31645.187444 29681.686963 24411.759799 15699.962881 13382.735512 9327.253963 9201.015187 1996.659477 1953.433022 32932.212873 33242.964524 33118.921068 28401.074380 23958.518787 20183.162567 18515.771791 10404.823643 7731.733629 -378.948659 604.929660 33724.388884 33246.953259 33001.297069 26287.352728 25932.776135 20188.700208 16199.336867 4363.893277 2907.447296 -790.949964 5188.507114 33323.314557 34349.659862 32887.439803 29093.472612 25434.367240 21524.478358 13016.497069 11390.543559 8309.038229 5082.242436 7580.040435 33468.980712 33863.827604 32496.163757 28935.490564 23413.077927 21782.579219 17543.449528 14414.641959 11958.213382 2873.098274 5334.523422 34445.852967 31682.131457 32849.899854 28683.180118 22642.977419 20677.191447 18187.949562 9230.181296 6679.535799 1808.769543 7601.079321 34673.166704 34214.582778 32766.431398 27589.506505 25078.876796 21660.292268 18191.028216 11768.656024 3250.306263 3022.851024 3385.314340 32645.559451 33923.357497 32360.530115 26463.356916 23794.439912 20874.659736 17343.806752 14376.569458 9703.647252 9702.206133 8811.977540 33033.361212 32601.396785 31365.207686 25055.111475 24321.296116 19327.906324 16714.871106 13933.548561 8700.435411 8423.993113 3718.629252 38211.576336 33152.719022 31940.885010 26096.880630 24684.281542 18869.217450 16064.012289 14568.824216 10351.524686 8909.104691 6636.829368 34615.819346 32826.455366 31115.582592 25833.811296 23571.227407 21306.798487 15345.355990 14678.794270 12844.696666 9432.277227 8742.756914 34440.219572 32594.015407 31133.245641 26240.126231 20939.986246 22194.241349 15908.662054 13570.690368 12726.462674 9223.576295 6856.491158 34778.600070 32424.144745 30366.681375 26628.903408 20201.182225 21227.267434 14691.698475 11328.086621 10637.386936 8351.778472 6155.289683 32958.010201 31851.678897 30038.707254 26898.430829 20667.610308 21120.793361 15828.360365 11035.618697 10953.050449 7825.809369 5443.148087 32725.408399 30905.215919 28871.359806 25940.343090 21659.558732 18778.932362 14938.343386 9901.434534 11894.522321 8635.581664 6395.735276 32901.815549 30494.751149 27089.079352 26790.389925 20788.164808 19092.284719 15675.152498 7121.203412 11728.042649 10288.568589 1390.842728 31841.083017 31605.926824 28446.888042 25205.732446 22574.711419 16051.554886 15936.402106 11048.343597 10822.793737 10397.197072 -3210.317494 31342.726365 30445.593877 29248.812311 25401.600526 19700.752149 17534.019016 14526.072740 10884.234475 10791.697599 12509.371245 11530.693754 29893.272563 27271.610454 28094.237130 22309.233412 20332.457190 15618.480799 14673.249811 12446.470242 7210.675233 12850.248494 5037.369268 33197.199233 27455.817865 26570.182091 22641.720204 21716.291788 15943.746209 14011.392640 13658.180993 6282.686260 14836.672147 -2042.701733 39099.919534 28215.177665 24775.640300 21886.636589 20367.417410 14759.472951 13831.975597 12281.449379 6301.632069 16256.117127 3079.744363 38058.588920 28698.838183 23432.575778 21007.861651 17535.811243 17463.105932 13792.159828 12327.235459 7730.336175 16389.392885 16933.825954 24940.732554 23354.294336 16957.499275 20162.406087 20673.023586 16810.367588 13287.246353 12432.765574 4935.704840 14122.877648 7558.887238 32150.724756 10854.152676 21226.764290 18878.998374 17673.968399 19501.657130 10650.111857 12736.135672 4520.307086 9952.280697 4904.527215 14424.355738 12220.673283 7582.322337 17866.462676 16417.671340 16704.793422 11686.177120 10902.978794 5354.378052 9291.983380 6653.291085 10535.061898 2366.406654 7210.714073 18940.318521 17370.314023 15459.998280 10371.379077 10323.158044 4835.719449 7180.771225 4461.205080 11756.067574 15142.766934 21750.068580 18910.399981 16885.603972 13990.223393 12148.325200 8982.157151 6242.499324 3905.272761 2421.180060 17914.768673 17392.278287 20440.362302 16684.779612 15591.671755 14597.843752 10560.000695 9340.266857 6910.286988 3715.099518 3500.564076 31384.181575 23832.246628 9425.920613 14826.802355 14369.735065 13238.843894 11282.024001 7858.665131 5877.796533 2673.026931 4774.971996 20582.301349 5455.058518 7562.108592 11161.275085 14964.322915 13421.027777 11407.607439 7928.280027 5724.851562 3389.211023 5148.548081 17597.996232 9411.697555 10584.449104 11710.419829 13754.887685 13192.357122 10870.483124 7823.438507 6112.196585 3425.990335 4492.408920 18591.550351 15322.793909 16610.489100 16924.707176 13794.600768 12496.847234 8639.533441 8567.523269 5709.056269 3453.972327 4517.363471 21424.323697 20192.123913 16713.701175 14586.864630 14081.458732 11186.342169 10950.973977 7635.041629 6003.442692 3779.799550 4896.559087 25406.400486 27717.374239 16969.725480 7653.127942 12025.316289 11653.197217 9989.347042 8368.858997 6029.590095 3773.485577 4226.750458 23816.551483 18178.136139 1858.017023 4850.062074 6358.111676 10173.418915 9862.121409 6611.480148 4977.686858 3053.829093 3665.003811 19399.128060 13531.246146 5974.349668 7731.504130 7670.638405 10795.839025 8707.192171 6602.163798 4853.916139 3065.653968 3438.029402 18338.608503 14624.681285 11206.328685 11208.207781 11475.037817 10012.185284 9079.853159 5783.911535 5209.496066 3162.891244 2892.401691 19079.358143 18295.039856 17036.065168 14151.334322 11576.145144 9833.250310 7712.951962 6897.172626 4372.338279 2894.885187 2627.571147 19618.070647 21285.972117 21726.193657 12843.746104 6741.318596 9095.253745 8451.867916 6100.936514 4158.301625 2859.411527 2847.780485 18781.221941 19475.406451 14250.538740 1202.024519 5808.235387 5323.056597 8245.765693 7259.514378 3934.582268 2914.005770 2055.881487 17311.002673 16572.355152 12782.695311 5553.149220 6326.082483 5198.662905 8049.824254 6685.879970 4271.802441 2738.090794 2130.645496 16506.486506 16099.345928 13983.522274 9527.593461 9597.802800 8360.893939 6367.884143 6509.208806 3367.334482 3149.598609 2554.204569 16184.800301 16467.540391 16040.829371 14290.623268 11435.072596 8838.164849 8424.954934 5798.096383 5499.869218 3201.729047 2476.314566 15893.923445 16982.887398 18849.590440 19183.059193 10368.385272 5250.285064 6777.654880 5901.411401 4980.012969 2842.623580 2118.175318 15221.808650 16122.838905 17019.822610 12425.656689 130.355305 4515.001597 4779.229674 6666.048914 5200.900000 2286.099281 2450.558429 14296.171438 14518.942444 13777.213415 10321.181960 3819.035740 5031.732229 4511.477278 6536.946372 4814.230076 3273.124926 2340.853936 13496.071437 13582.453848 13079.172924 11101.894512 7680.406437 6901.591114 6127.472762 4914.726699 3959.555849 3033.218133 2029.716060 12899.919125 13205.585552 13492.603997 13489.191653 12482.670156 9582.754068 6642.583174 6179.610551 4751.328297 3245.204660 1905.080404 12361.651540 12876.989011 13849.990821 15674.806125 16625.055490 8326.770069 5582.017253 5393.637263 5136.716566 2700.069086 1861.780883 11751.951287 12231.593596 12970.383639 13586.983727 9765.126660 -520.918195 4581.876754 3711.868754 5348.860071 3354.401535 1906.819085 11086.051835 11408.564324 11603.637529 10925.416324 8098.213511 3394.282819 2919.344108 3979.927862 4900.003919 3175.298789 1911.083218 10450.163400 10723.542935 10886.285424 10611.876667 9388.164611 7064.602123 6473.326357 4662.495313 3119.932555 3388.101666 2176.587555 9874.773792 10216.075921 10631.640975 11120.509215 11586.412186 11111.982994 7503.037491 5233.667450 4233.417206 3448.908547 2572.513579 9325.254696 9746.794164 10394.430945 11574.577441 13900.264687 15962.698685 7143.218927 4784.611403 4638.551487 3059.156082 2520.054376 8762.220447 9199.370418 9844.550097 10850.876602 12095.393860 9283.763299 -1316.678885 2585.190443 3609.980896 4290.503331 3030.410189 8182.659335 8585.918088 9092.504184 9577.982021 9506.715585 7371.611241 2548.896690 2329.205276 4035.109611 3590.240705 3251.586496 7608.650675 7984.232136 8418.072057 8773.273578 8759.426748 7872.670760 5574.096729 5671.343259 3821.535654 3129.774555 2251.174446 7055.245464 7429.658576 7884.177198 8362.248338 8783.661160 8976.815586 8635.620584 6213.698414 3556.733895 2878.048458 2102.841797 6519.592231 6901.599872 7399.206412 8032.505571 8941.766442 10337.940070 10327.038782 6133.458390 3298.976063 3154.953959 2397.279226 5992.316949 6368.077709 6867.707090 7516.881991 8408.226466 9423.128126 7663.270761 760.393434 3309.790495 2606.891174 2778.092546 5470.801167 5821.282590 6278.404707 6834.727857 7454.553023 7912.587253 6964.036232 3170.295935 2034.193324 2486.070026 2693.858173 4961.662935 5276.698429 5676.947531 6139.512013 6623.271459 7062.118445 7083.632183 4916.110067 4959.211203 2739.600070 2678.305303 4475.222580 4754.126846 5102.277936 5495.581979 5900.212896 6267.958507 6427.066379 5429.775763 2743.093745 2781.131721 2280.202913 4020.218196 4266.965739 4572.007372 4913.737667 5270.268827 5641.531365 6064.969421 5748.074190 4651.346113 2910.369659 1807.046994 3601.944074 3821.855927 4092.116835 4391.594506 4693.094684 4954.939418 5072.870161 4620.433997 3470.807110 2382.456198 1960.398702 3222.458340 3421.052330 3665.014312 3934.120401 4198.251635 4407.956319 4483.747843 4290.608630 3453.620950 2747.539572 2065.705182 2881.203719 3063.479468 3289.504137 3543.137534 3800.351641 4020.500819 4125.165944 3957.364701 3381.351463 3262.890356 2100.784364 2575.671625 2745.103250 2958.988573 3207.918240 3481.409492 3767.096461 4040.022326 4181.655851 3787.375822 3215.063283 1984.726952 2302.346521 2460.161142 2663.017960 2907.744310 3197.391104 3553.647276 4053.813536 4810.103116 5292.434189 2455.248887 1865.300962 2057.898330 2203.365521 2392.061448 2623.231658 2903.540379 3260.696826 3782.173076 4622.380469 4881.951438 2135.313694 1259.392865 1840.174830 1971.869157 2142.075086 2348.369358 2590.680217 2871.516130 3179.641648 3400.412874 3024.763326 1427.535795 1598.885064 1648.540413 1765.733886 1915.156444 2091.378511 2286.592507 2484.842247 2643.308831 2660.793287 2410.746721 1873.788941 1715.814399 1483.533379 1586.876853 1716.346495 1864.577414 2020.595309 2166.108294 2270.210041 2291.019448 2210.545618 2038.409492 1836.272055 1346.239612 1437.625664 1550.149506 1676.039802 1804.769240 1922.268137 2012.119150 2062.581850 2080.693741 2070.369722 1864.227802 1237.855589 1319.916215 1419.201057 1528.546656 1638.927244 1740.143835 1823.882273 1891.863815 1970.514569 2100.317173 2165.458268 1159.920844 1235.334927 1324.637814 1422.165969 1519.775029 1608.712451 1681.650063 1735.620995 1771.818133 1764.361443 1623.954226 23945.679082 21794.365064 17734.246907 19252.617947 15460.786050 13892.301923 13744.163650 10450.869465 12199.848342 7178.543218 4812.101501 3133.011440 -2083.272927 -4436.838301 22541.799486 18282.975165 18526.971975 18405.288219 16406.153894 14651.030739 12697.103560 11173.815430 9247.712549 8069.813596 6528.370441 3080.313128 2338.045992 881.161377 15497.863033 18629.892157 15287.034217 17392.435176 13494.955796 12656.810392 12961.278485 11065.403258 10150.622267 8647.245608 5711.055312 4191.776452 2806.895440 2927.059755 16884.798443 15152.022937 16127.024487 14495.150850 15393.635309 11639.357320 10042.222448 7946.052613 6688.400236 6314.561175 4882.447483 2035.541600 2539.308325 2270.357993 21952.790013 17685.386542 19029.902371 17775.853921 16849.255987 8976.505465 8610.724540 10590.964926 9683.225040 5902.796811 5133.580186 3002.429329 2793.673092 2374.221668 16821.318292 17507.526125 16684.805044 15703.503991 10661.081669 11188.817601 9015.074366 11804.626346 7834.382225 6094.743539 5583.070317 3453.379924 2629.770550 2161.912940 19702.163450 14749.928303 15310.652299 12613.104103 13208.271546 9096.323961 12020.998849 10048.473529 8495.809084 5879.901528 4651.027769 2889.567737 1728.721189 1547.504049 15685.563220 15267.547231 15956.902519 12053.870713 11213.314502 10476.322066 9299.150385 7916.269459 6307.916174 4334.972829 3972.218861 501.468725 1629.226674 2046.281729 19598.991542 18414.025920 13892.224217 13841.950185 13939.397786 10209.316529 10911.209577 8160.036720 4455.346610 7160.057629 5041.282733 672.670275 1728.043794 2065.945059 16759.954262 15724.130580 12569.445536 15057.585827 13626.066064 9491.596711 11294.431011 7714.554657 7832.159008 6755.857838 6276.807307 2176.441375 3892.876169 3216.276113 15545.793235 17717.455958 15160.787270 9535.516106 13567.086258 10214.267001 12077.066361 8396.233971 8144.585992 3800.375474 3996.206201 1119.157976 3861.862836 2695.515277 17765.775779 10464.191278 15771.299561 16309.703344 10031.206450 8152.797408 6382.861835 12496.866224 8608.612640 6665.513296 5436.214899 2781.979198 3701.731768 4681.303799 10783.312425 13869.981543 76.194242 11897.796169 9286.601948 8282.487033 13271.495539 14457.106099 12207.698403 7466.222997 6204.252064 3659.713938 5512.517453 4174.128909 627.785344 6994.372552 575.706694 6242.144237 3820.642062 2245.232114 5980.126456 8174.031658 6102.586632 8578.375546 7250.062886 5900.304764 7330.209109 5758.736995 17638.215359 2497.341555 -953.171836 -3929.430648 3813.744589 -5176.786266 -673.073394 9632.728946 841.957789 5241.391296 9627.932958 5382.681629 4575.842640 7354.565800
</DataArray>
<DataArray type="Float64" Name="Velocity" NumberOfComponents="3" format="ascii">