<VTKFile type="PolyData">
<PolyData>
<Piece NumberOfPoints="1945" NumberOfVerts="1945" NumberOfLines="0" NumberOfStrips="0" NumberOfPolys="0">
<PointData>
<DataArray type="Float64" Name="Pressure" format="ascii">
 14308.590573 11737.961643 8388.267156 4173.643356 8165.912197 5930.351446 14004.134660 12629.294900 16581.444982 14577.249595 15376.687066 13786.985733 13682.034170 9148.753065 15881.362297 16114.817445 14072.333091 10120.814703 16498.978374 19742.775589 12586.253286 13217.203981 14525.149872 13438.475554 15202.627492 15742.199953 15929.098516 17330.339712 15240.462872 13887.511324 16238.435421 15896.441534 18670.140863 18901.504527 18405.063141 15780.346770 18828.737854 18463.850295 20726.111877 17354.558501 21439.296294 23496.824344 18629.131731 14523.981827 24800.417596 25356.699843 20370.026306 19088.722938 21787.827952 20407.188720 26915.449787 25213.918972 26346.677851 24159.243899 29078.142985 26668.592567 27057.110970 22689.346279 34338.800617 29535.451368 36425.812325 30551.290100 36509.914010 30054.653527 36408.665387 29689.691207 33984.272746 28967.942870 37345.102436 31872.627396 36874.851416 32008.697621 33826.561781 31748.553232 37794.640314 35194.268830 42900.891637 38453.132782 37832.875541 34394.373397 35974.280765 33200.455223 41545.504124 42181.384549 38914.974413 35392.709995 44268.083785 45003.871286 43535.786759 44134.823045 39910.877838 41244.247152 35021.037496 36247.781205 44642.608331 47231.031175 47280.863521 47091.378882 53657.182317 57370.456710 63251.830353 77920.789760 61456.045122 76998.860333 45135.805108 48199.999177 32299.822255 32918.720667 28022.467384 28066.436373 28633.951939 32558.741245 27858.751376 31011.614231 25617.317202 26517.647568 23830.522605 23722.983253 23282.079833 23702.324233 23192.110312 24526.271776 22472.316607 23492.059468 21121.164119 21179.018159 19899.732411 19579.393541 19140.437976 19049.893494 18609.042058 18795.205516 18011.632268 18215.582596 17308.642303 17375.515021 16623.037171 16632.695849 16016.171256 16078.700935 15440.197501 15574.315863 14825.995220 14969.431679 14164.187473 14265.781150 13495.952987 13567.480869 12853.129515 12929.561405 12232.950100 12327.271203 11619.020906 11720.377131 11006.450928 11104.396308 10402.891264 10500.871899 9814.573693 9921.650810 9239.030910 9357.860258 8669.966694 8795.130201 8104.704227 8229.292894 7545.725441 7666.746902 6997.054706 7115.002713 6461.075596 6576.595924 5938.678904 6050.665942 5431.275869 5537.435349 4942.086050 5040.390386 4475.770756 4565.298380 4037.147458 4118.070139 3630.006607 3703.190906 3256.501292 3323.098500 2917.093802 2978.215439 2610.893203 2667.373426 2336.224418 2388.505255 2091.263490 2139.445187 1874.557673 1918.588067 1685.291314 1725.192784 1523.268764 1559.297918 1388.695286 1421.397472 1281.882980 1312.034500 1203.202425 1230.876858 1153.669653 1178.670137 1133.720738 1158.211132 11359.033926 10882.709360 10078.915710 8596.199533 7446.933305 6398.528982 4601.704528 5095.586411 6129.684925 3868.042564 2473.198041 3368.112467 -1247.008324 -4918.121140 -3548.384875 -2168.966196 -5469.607750 -8190.899153 -6579.546162 -6593.109522 -10818.260627 -11376.355978 -9734.918136 -8603.046422 -7500.318761 -6477.941595 -5547.008390 -4711.672477 -3971.215685 -3321.497120 -2756.405424 -2268.967592 -1852.001386 -1498.422590 -1201.363402 -954.220537 -750.695492 -584.845886 -451.143564 -344.528010 -260.445292 -194.867447 -144.291661 -105.721557 -76.634432 -54.938617 -38.924987 -27.216263 -18.718733 -12.590741 -8.313819 5205.769802 5489.401448 5559.817691 4222.498058 2961.612815 570.434736 -268.600710 264.184529 3113.663688 -858.603313 -4384.057007 1627.547162 -2586.887961 -7674.544083 -3291.368287 -1548.114892 -6846.291949 -9687.194899 -6090.080187 -3523.753980 -7997.652469 -11433.496296 -9595.977264 -8544.380811 -7504.847435 -6496.527011 -5568.507861 -4733.061044 -3991.427067 -3340.099722 -2773.263245 -2284.094079 -1865.474979 -1510.341318 -1211.826521 -963.325361 -758.540026 -591.531731 -456.776904 -349.218522 -264.303703 -198.002567 -146.807544 -107.715158 -78.193909 -56.142273 -39.840681 -27.900480 -19.210688 -12.871010 -8.044827 1223.745190 1284.620602 1359.925549 1441.410617 1521.212631 1590.962634 1642.149990 1665.656069 1645.572904 1513.689143 1178.089203 1000.507236 934.954497 806.105761 683.656163 576.251305 482.447443 400.904925 330.425261 269.933656 218.443684 175.027507 138.797536 108.899537 84.514556 64.866237 49.230280 36.943460 27.410509 20.107960 14.584769 10.459986 7.418058 5.202494 3.608572 2.475747 1.680246 1.128202 0.749552 0.492803 0.320670 0.206545 0.131704 0.083151 0.051984 0.032182 0.019726 0.011961 0.007153 0.004169 0.002238 1203.858466 1264.376352 1336.618398 1414.471471 1490.176487 1555.046489 1599.199147 1609.875730 1568.351934 1451.687265 1264.551910 1099.824015 950.256855 809.671012 686.697478 578.960060 484.886875 403.108557 332.418016 271.733321 220.062132 176.472716 140.075764 110.017121 85.479099 65.687167 49.918873 37.512497 27.873716 20.479380 14.878164 10.688340 7.593215 5.334931 3.707307 2.548345 1.732908 1.165897 0.776186 0.511383 0.333471 0.215257 0.137563 0.087045 0.054542 0.033844 0.020793 0.012638 0.007578 0.004448 0.002535 -5.758271 -4.649022 -5.266855 -4.289531 -3.858785 -3.393279 -2.432840 -2.396300 -1.586920 -1.603825 -1.035408 -1.053979 -0.671296 -0.685013 -0.431754 -0.441156 -0.275393 -0.281681 -0.174211 -0.178362 -0.109308 -0.112020 -0.068037 -0.069791 -0.042016 -0.043140 -0.025746 -0.026461 -0.015657 -0.016107 -0.009451 -0.009731 -0.005663 -0.005836 -0.003369 -0.003475 -0.001990 -0.002055 -0.001167 -0.001206 -0.000680 -0.000704 -0.000393 -0.000407 -0.000226 -0.000234 -0.000129 -0.000134 -0.000073 -0.000076 -0.000041 -0.000043 -0.000023 -0.000024 -0.000013 -0.000013 -0.000007 -0.000007 -0.000004 -0.000004 -0.000002 -0.000002 -0.000001 -0.000001 -0.000001 -0.000001 -0.000000 -0.000000 -0.000000 -0.000000 -0.000000 -0.000000 -0.000000 -0.000000 -0.000000 -0.000000 -0.000000 -0.000000 -0.000000 -0.000000 -0.000000 -0.000000 -0.000000 -0.000000 -0.000000 -0.000000 -0.000000 -0.000000 -0.000000 -0.000000 -0.000000 -0.000000 -0.000000 -0.000000 -0.000000 -0.000000 -0.000000 -0.000000 -0.000000 -0.000000 -0.000000 -0.000000 -0.000000 -0.000000 -0.000000 -0.000000 -0.000000 -0.000000 -0.000000 -0.000000 -0.000000 -0.000000 -0.000000 -0.000000 -0.000000 -0.000000 -0.000000 -0.000000 -0.000000 -0.000000 -0.000000 -0.000000 -0.000000 -0.000000 -0.000000 -0.000000 -0.000000 -0.000000 -0.000000 -0.000000 -0.000000 -0.000000 -0.000000 -0.000000 -0.000000 -0.000000 -0.000000 -0.000000 -0.000000 -0.000000 -0.000000 -0.000000 -0.000000 -0.000000 -0.000000 -0.000000 -0.000000 -0.000000 -0.000000 -0.000000 -0.000000 -0.000000 -0.000000 -0.000000 -0.000000 -0.000000 -0.000000 -0.000000 -0.000000 -0.000000 -0.000000 -0.000000 -0.000000 -0.000000 -0.000000 -0.000000 -0.000000 -0.000000 0.000000 0.000000 0.000000 0.000000 0.000000 0.000000 0.000000 0.000000 0.000000 0.000000 0.000000 0.000000 0.000000 0.000000 0.000000 0.000000 0.000000 0.000000 0.000001 0.000001 0.000002 0.000002 0.000004 0.000005 0.000010 0.000010 0.000021 0.000021 0.000043 0.000045 0.000089 0.000092 0.000180 0.000183 0.000365 0.000353 0.000776 0.000621 0.001267 0.000919 0.001514 0.001114 9450.699655 5463.189013 9636.209050 9889.928537 8912.237359 7279.529855 9057.172222 4842.688687 8026.083352 5257.155088 5010.104830 15812.661039 10479.869242 14976.902516 10259.419446 6082.366085 9614.209042 9469.093833 6016.983648 7841.908236 5740.814434 1714.502930 10286.826559 13849.402633 10687.455625 7603.554227 9656.884088 7886.811247 4920.870047 8648.388430 5246.909484 8758.281866 7705.212005 11935.693190 13986.753570 10316.365346 16082.787033 11661.249731 11617.831968 10208.170246 6428.779261 11534.802294 11314.622280 5868.960088 17909.437533 13424.681178 17271.497162 10011.654407 13017.781995 12535.988427 12032.193725 10065.568145 10587.169495 8216.759206 11075.229565 17074.745548 18945.545013 15692.428559 13309.161838 12076.770382 12543.982137 12113.982199 10539.756828 8982.199263 9420.703805 10522.949758 13094.052997 16868.896652 17003.647858 14280.408120 11866.756582 13316.655841 13720.212279 13606.840275 8922.393307 13793.245974 9603.356855 16708.528888 16896.608820 18462.324670 14648.983988 19489.616400 12242.350964 12946.788006 11876.982364 11997.816170 11701.414955 10452.806665 16942.127314 19392.367642 20193.202925 14172.031591 16171.963910 17877.156042 16495.005676 14824.997204 14082.463771 11680.763741 9510.292737 19931.387260 22157.948250 15783.784362 19112.525186 16769.407154 18826.332555 18296.501023 15826.144114 14343.284908 15007.680410 12806.037287 25509.588785 20217.909656 22647.824190 19112.607930 23278.378131 16879.115593 21920.165715 14858.762438 14677.456856 11827.420468 15429.511450 24222.444992 23411.259478 20659.810686 21233.146541 18034.538615 17321.216719 19983.978293 20476.655337 16001.517046 18439.588669 17145.658027 27188.631577 24785.909103 25463.491899 21706.088056 20621.755327 21497.864226 19685.021076 16353.455654 17858.698858 16347.788933 16942.272925 23799.223227 25272.392936 23589.113233 25994.662771 20538.007021 22994.547232 24227.739395 21156.044459 19526.458349 12901.199648 11807.430421 26135.632184 25946.712343 26412.293668 23931.546069 22731.012546 21909.759426 18440.528430 18989.503369 12163.278760 13019.140595 1659.665756 28760.242458 25261.124971 25119.664589 23749.179280 19664.467404 23157.368277 18292.879492 14672.481053 9795.479612 2105.165736 -877.893099 28517.368130 27141.257295 26386.826332 25336.717092 24609.105741 21567.059777 13495.411224 17316.290210 7475.318226 4194.807553 2944.940257 26470.790747 27441.705202 26707.197194 25709.834061 21859.878854 15940.944342 16748.835212 9310.319266 4549.991121 3174.782959 1593.476900 31482.680800 27565.178205 26899.711217 24389.122155 24753.966126 22889.551894 13471.971912 13729.066382 6557.555828 -1428.156036 12242.616747 28785.017398 30901.331388 27475.133074 29823.288752 26157.455238 20310.833964 16265.490314 9886.418327 -6192.723500 -1406.172956 -2007.132487 32135.083933 28595.907333 32177.445420 30288.967121 20666.124741 16004.516926 15606.399439 7576.371399 3999.453329 -1986.147724 -952.065819 31938.334146 30898.456374 29986.202436 25464.592652 25589.404370 16565.442962 7202.483497 7108.889548 11931.653231 11904.630709 -4395.946039 35451.906647 29684.143404 31181.231271 24857.405057 18675.952180 18009.208514 14804.384244 10562.239764 5665.829809 6749.415119 -9500.414025 32513.637767 30948.909332 31194.939996 28039.647422 25273.488938 15852.295433 16674.478082 12143.005263 8704.209801 5568.244093 -7614.491628 33472.955906 32638.400494 28984.643229 29646.323288 24015.713607 20490.611459 15236.014984 10444.548338 7645.436655 19197.606087 4118.481529 31137.999984 37129.624186 30189.027597 30185.148117 26981.236690 13779.871576 12618.154203 13527.642864 12849.978461 8887.095133 -2909.152140 35569.511898 32949.130575 32045.944730 26754.883953 23747.026017 20250.599832 17677.835832 11370.274064 7816.222497 13836.083764 680.838316 34360.110251 30211.329176 34547.113202 33617.383493 21991.280270 23029.749735 16182.962476 14563.076127 12429.334971 4016.460041 22457.775284 33806.915958 32405.197109 30037.259552 30355.357500 25354.665179 21221.574065 18184.474449 10842.335771 15838.443275 13633.880701 15003.150212 29258.989228 36198.866742 34718.881081 32670.772548 26583.000798 19489.900273 17585.884390 11420.943014 10430.197768 4418.110703 11581.182204 33497.316131 40398.491147 30998.076299 27298.645215 27470.190303 23733.249336 17223.662843 11908.508485 9075.967006 11942.752662 7948.976043 41183.419990 35695.746461 34310.969060 37394.585124 28128.594020 20097.298908 16193.957733 13523.298226 12987.190348 20747.486728 -5592.498103 35923.034644 35687.002371 32185.296742 30162.524179 30490.071547 21911.727508 21390.655255 12267.138535 5498.141858 11516.707675 2294.646032 34722.183379 37193.759491 31329.328419 32746.908783 28258.300377 25368.325758 22247.064908 13828.302751 7336.507219 5212.944188 2129.175922 35381.813873 34817.830369 33042.287395 34877.697171 27837.972181 29253.848578 19821.830197 10190.982520 17663.228770 13883.377891 18669.588038 34873.319789 37502.942878 29336.972563 35195.808662 25253.044290 26915.316090 19321.100814 17003.548477 12204.381816 16091.109619 14946.483156 35520.609683 38074.821997 32983.727590 34298.273837 30000.094677 24071.776700 24309.527173 16072.785018 12667.917893 15924.610386 11720.710092 40614.126860 34363.883985 33565.790944 29990.037362 29668.504286 17792.265835 24889.290520 16860.705140 14252.727872 13095.551910 8856.967581 39095.026864 36922.712210 33608.797550 29783.049294 33454.773109 24054.365310 21025.261379 18694.219747 12083.872505 -1560.721372 11738.079949 35303.559434 36133.185521 31519.822055 27826.409645 30514.886650 20943.363622 24924.075460 20329.959089 11732.076610 10592.796625 15658.267866 41131.194004 36927.925069 35861.074893 34403.993640 27958.327800 21995.060875 13619.781736 20963.487538 15210.451338 8793.089781 1241.010952 37662.589173 36347.849074 33398.692704 27406.007298 27780.737506 29679.565219 26700.391615 19125.726405 18223.514477 14959.204685 4686.102975 37105.965215 33922.501159 33034.807690 27292.319701 22396.982052 23669.680991 21381.724383 17084.267897 16778.649369 17119.011068 13764.934665 36315.982817 37030.417579 32116.282191 28891.724920 26335.323817 21442.128140 18749.713380 16422.669631 14432.442512 7137.647037 9651.280115 41236.431721 43036.121493 30069.454179 29749.922885 23700.785078 22707.668077 18841.618246 8996.629279 15917.392510 9556.117438 2878.889535 50150.350065 33003.933976 30115.940885 30761.240584 24044.631036 22397.375840 22004.768169 15622.052708 20172.092065 9171.497634 1820.329682 58034.551067 37231.236561 32745.050381 26937.281869 27529.960838 24070.929223 18873.885178 16165.765946 14009.363329 13479.322258 11352.077693 26034.302626 33277.839270 13382.506144 28751.466473 26658.536359 20767.214048 21568.085791 13555.406575 11543.269774 9058.906344 11954.962303 46311.614020 4468.477246 32352.356607 23468.434354 29382.798718 25215.646298 23664.824208 12986.482122 14829.390834 9944.098059 1957.254633 20081.271882 12861.941788 810.985929 28280.733070 26649.897048 19715.850028 22878.029142 12582.038251 15270.726276 11291.222279 3396.736112 12016.860437 -9900.573153 2105.117807 25894.149229 25666.926183 19597.602303 22045.920414 13088.190614 9367.389095 11835.436758 8757.235578 14335.231595 24559.278760 31573.967662 29433.865066 26423.486039 21452.773065 19017.721126 17925.421958 11445.945492 11228.113946 -2750.807956 24965.775341 26991.221541 19354.499595 26624.523289 22893.050962 21044.509775 18185.248246 15368.535519 9190.166330 11937.215687 -5390.473769 45044.565219 43979.397367 5478.930645 26137.080259 26472.308237 20785.222779 21796.380261 14299.126644 7598.539617 12925.627665 8189.037827 32723.029488 11290.188685 10954.399048 11651.319572 23625.538385 22621.434868 17004.689619 14783.120139 5904.427137 8497.466038 6521.330813 25547.935549 10553.536076 19396.902552 11600.382807 23538.858554 20673.197263 18248.082209 14435.281620 10251.546038 6563.727194 2063.824458 22263.054182 17866.297732 24458.552766 24660.820598 24286.167109 19136.643720 18852.174976 15003.212174 9228.448279 7565.474930 11486.488872 26235.696162 33650.087531 27460.009741 23070.760288 26140.800045 18647.470453 19776.067052 13962.353643 9957.319372 5644.638220 12867.437244 30845.412523 49813.692556 38311.939760 8549.311785 22270.069031 18330.161927 15444.777959 13977.074589 10824.009204 5703.158291 10191.150769 27888.092414 32912.247852 -3589.634540 1683.343260 4954.397649 18227.763685 15907.851722 14592.464599 7570.203085 6483.445728 10824.425129 20782.166777 18310.659829 6717.208276 10206.508309 5237.909602 19501.351404 15667.767305 12886.492477 7444.612188 6497.485329 8253.768890 18630.587092 16871.270072 14785.048418 16822.245050 17950.006691 16185.480439 15453.344627 11391.343325 10666.741656 6420.925881 7290.248838 19130.061578 19684.718925 20840.078906 23762.397494 18184.544252 17485.568298 10819.033875 11168.925969 8303.493603 4734.152762 6933.001764 19726.686034 23344.064619 33354.320808 22543.964459 7818.987667 16777.161075 14205.594894 9987.102740 9255.966536 3581.463572 6582.548408 18925.597791 21614.870950 22634.189583 -3074.490663 6146.249947 5492.998846 12494.020947 11718.211491 8494.987185 4433.692172 4360.763018 17402.414296 17198.984710 15441.157708 5135.344780 7947.730826 4191.937006 12066.677621 10044.397344 6773.257291 3923.846040 4993.840804 16532.470064 16242.221220 15826.819003 11234.420805 12737.598302 10098.886788 10486.065628 9248.987549 5067.473330 4921.217219 3927.220201 16199.333095 16457.054472 17181.755205 18803.600441 16331.170600 10799.011270 11868.439309 8762.041245 7745.139724 4381.582569 3641.080012 15951.461847 17007.186741 20657.607168 29763.442659 14817.812032 6754.793599 10466.249814 9283.671500 6640.240546 3928.903911 3136.802058 15336.387689 16159.489260 19013.238199 20689.722160 -4526.975060 4258.295881 4850.019661 7211.746963 7662.734551 3150.623582 2866.495284 14440.682754 14509.739055 14205.024413 12124.575406 1540.751326 5431.645809 2475.585386 8403.265827 6921.449633 3791.820409 3401.072263 13643.729827 13525.083554 12955.174680 11618.820029 7856.972550 7789.130892 7632.001456 7299.682393 4552.702606 3923.051159 3130.465466 13045.101754 13136.978361 13257.298938 13650.263377 14980.130731 11422.552309 8539.741044 7989.114996 6030.293893 3924.389012 2717.574895 12513.576529 12835.803178 13645.503815 16459.727570 23463.921375 11068.723449 7879.026721 7300.197722 6519.664868 3746.106122 2410.890289 11922.981255 12242.228396 12822.832372 14656.354844 15415.644640 -5642.180286 4953.883809 4062.315739 6169.740355 4479.880601 2665.005314 11284.374107 11479.967584 11522.103607 11028.492019 8720.797660 1535.063715 1837.864506 2747.428879 6584.655128 4531.861258 2769.692618 10678.040712 10855.019795 10890.802078 10560.855143 9695.823337 7070.275204 6941.796579 4427.003709 3313.916334 4232.330343 2495.934264 10130.702785 10401.722400 10721.309222 11108.764112 11537.083787 12099.805942 7909.967257 6005.032084 4095.901314 4053.207018 3049.930923 9605.255386 9977.059810 10559.527027 11645.600439 14365.535931 19422.967266 8273.641577 6357.834600 5549.835749 3037.131126 2390.686275 9059.216803 9457.853162 10058.795164 11029.452572 13539.913608 14238.288147 -6620.846854 847.850425 4352.890252 3287.968336 3119.201468 8487.223251 8851.138881 9307.324951 9731.751950 10026.568969 8712.208975 439.374856 1207.940333 4003.082665 3340.372658 4193.044442 7912.352930 8240.514404 8604.711723 8851.495443 8741.280125 8097.980636 4916.319936 5685.792428 4601.224076 3247.235873 2140.613315 7353.740144 7674.016997 8049.207423 8414.533362 8698.324781 8807.135443 8719.318389 6176.173713 3781.155363 3078.908955 2111.084094 6812.610907 7139.957722 7562.952126 8104.588780 8916.022787 10665.919008 13304.243527 6784.460089 3369.903653 3382.169245 1951.495055 6281.257113 6607.710390 7047.045503 7639.958312 8515.015253 10476.224722 11244.893962 -1865.795869 2472.307034 2772.838997 3152.508256 5756.114826 6064.937644 6475.664561 6996.841013 7615.802065 8372.461321 8737.459371 2088.085211 1167.737167 1849.812033 3008.874289 5241.829251 5521.815005 5883.385131 6312.775037 6772.616010 7281.527659 7922.453264 4445.984823 5269.588014 2568.046125 3143.945749 4747.448963 4995.946061 5308.720742 5665.429614 6031.728972 6357.511937 6819.996180 5960.943298 2234.618999 1952.095401 1842.803688 4281.664761 4501.321990 4773.060745 5076.745484 5390.233171 5713.158221 6445.487909 6680.712739 4916.575750 2852.454195 1748.771289 3850.508963 4046.108090 4285.420196 4547.956741 4806.273158 5016.964634 5150.799060 4775.106242 2928.854593 1406.160600 2035.171388 3456.983881 3633.919967 3849.828900 4084.811673 4308.321766 4468.957259 4508.858759 4458.555722 3318.716887 2346.504878 2052.379953 3101.348745 3264.606187 3465.856078 3689.230504 3910.384611 4087.079054 4139.048114 3932.443206 3123.231280 3287.188379 1861.613351 2781.679739 2934.664012 3127.172877 3350.194243 3593.354227 3843.815957 4075.480752 4152.799668 3550.107887 3002.557195 1662.627322 2494.832786 2638.583197 2823.286525 3046.335598 3311.349562 3640.628407 4112.942436 4974.315623 6266.795555 2618.363728 1557.850432 2237.703221 2371.180086 2544.507683 2757.574921 3017.794893 3353.802809 3855.052676 5009.283430 6616.596492 1926.077959 680.295054 2008.292297 2129.685391 2286.723908 2477.572992 2702.761590 2965.140025 3252.822063 3533.238835 3389.499774 649.684699 1234.383957 1806.100307 1914.289402 2052.164833 2214.761753 2394.650552 2575.750473 2713.590627 2702.991702 2444.723856 1611.334377 1587.377405 1631.806397 1727.099727 1846.171239 1982.010591 2123.919473 2253.584948 2339.767193 2341.715306 2275.113213 2031.449045 1843.852542 1486.637202 1570.659922 1673.601616 1787.983075 1903.555481 2006.465047 2080.699457 2116.416850 2132.821797 2145.728352 1672.594368 1371.911434 1447.098017 1537.395880 1635.916367 1733.964847 1821.737531 1891.477110 1945.700314 2023.983302 2207.854700 2310.759475 1289.251898 1358.133265 1438.889857 1526.140647 1612.152980 1688.743544 1749.376794 1792.132625 1829.838637 1847.312256 1652.785181 4573.213623 5800.150861 6136.217379 4020.081201 536.136189 6666.394887 662.210756 -1966.856493 2163.596623 417.283864 532.282279 -662.996115 -3128.688166 -12972.031665 5592.715703 3406.936026 4620.142315 3368.376085 3927.250048 1431.133901 4611.850455 3885.309775 -1353.393114 -152.927735 1782.868580 -1155.677352 -257.011067 1848.747537 6625.717753 9598.970152 2093.761826 3993.341863 1839.450358 554.439710 1574.459377 4554.545680 3612.612709 2623.197267 553.713714 442.921273 1113.405703 426.308140 8729.179776 2187.856329 6880.424600 8939.628152 2675.263728 6366.186655 7178.121055 893.832291 4097.071660 -1203.994208 2593.801684 -8.412340 708.556179 -72.661221 6284.638737 8751.621536 5161.965335 5008.319266 4557.500198 9427.825451 8144.713360 1175.707845 973.218134 612.980042 2858.446061 -533.609332 668.585696 -54.267423 5918.469371 10076.411668 4482.138356 8243.191656 9158.421226 5703.258782 7651.246474 -915.142204 -845.246461 3149.135855 5985.063586 -3422.986585 563.559364 1627.613738 9545.689932 8399.771082 8028.243708 8062.265046 4372.128541 8526.858563 2307.424133 6285.838100 1304.329442 5056.081401 3236.895148 -1367.841199 2032.163659 2682.248470 11792.804326 12042.708767 8267.290999 10727.001325 7507.116634 8678.264612 5875.159384 2004.531676 919.115461 3424.240971 741.766113 1073.793808 1718.459736 1565.386805 12076.313041 14794.581839 8305.689390 5985.156517 9491.520079 5790.031929 8021.892331 3739.604360 4475.512173 5684.321638 4440.567493 234.206301 770.376656 2412.387785 7545.280328 11137.856570 13786.950182 10031.579940 11354.137610 2031.898306 8253.779937 9925.955173 8640.373261 7668.085956 -162.604756 -430.455349 3842.034064 2787.502447 12929.454183 14366.940191 11689.137248 8954.617624 11794.595903 8182.582237 7879.736656 10218.700978 5013.972055 5820.651162 477.703407 1060.600861 624.870839 3407.888042 16504.012822 6733.682576 13348.852537 17357.150389 7550.237151 6345.372981 3666.478280 7341.449845 8111.803358 8833.418493 3683.036734 5086.240402 1991.814515 3060.242254 7385.723544 9030.229928 3367.725936 12521.494854 10162.435308 8924.313000 13934.836766 10527.690228 12271.365941 6153.109782 5299.399329 7504.172913 2729.250625 3191.220851 3101.080685 6544.557420 3707.186990 7430.116151 5835.342117 8104.574364 3196.975655 5663.463972 3005.601027 7600.408517 9351.735910 1432.527559 2309.342166 9876.578092 5952.547504 10093.715278 9626.808586 5052.333251 -1315.993333 12094.495971 3229.012532 435.741645 -1571.644876 3100.339450 4337.130803 5937.003167 4256.899592 10384.127446
</DataArray>
<DataArray type="Float64" Name="Velocity" NumberOfComponents="3" format="ascii">