<VTKFile type="PolyData">
<PolyData>
<Piece NumberOfPoints="1945" NumberOfVerts="1945" NumberOfLines="0" NumberOfStrips="0" NumberOfPolys="0">
<PointData>
<DataArray type="Float64" Name="Pressure" format="ascii">
 29382.685391 34213.897812 38529.814969 43317.821032 34605.969147 34329.845428 29846.708299 32082.378729 33871.758841 39057.550424 36375.859691 39969.677974 33572.332980 35689.015844 32669.260996 36967.885800 30727.519571 33883.478253 31881.408615 36633.740085 31354.938692 36118.634533 29574.763879 31253.190209 30389.443431 33086.726648 32382.925888 35976.231861 29761.265798 34165.403156 25243.081944 25009.360212 28491.702335 32786.304148 26090.274275 30110.737735 23605.906710 23571.984527 26789.735078 30647.365583 21891.898004 24770.304959 22280.107227 25089.008332 24728.872882 25624.876885 23162.345254 26717.025195 21763.742879 24303.917252 17872.463086 17866.038247 21740.226523 22894.765645 21025.771424 20701.284972 17596.759397 16031.943548 17670.095456 18288.925377 16010.594551 14946.590036 16227.077568 14532.625840 16789.811751 14574.798703 16994.681591 15969.551841 15202.811138 12975.793618 16213.335409 15552.753328 14337.278184 12745.256677 14673.382794 13322.884712 14969.283125 15596.715071 14152.134421 14891.503754 13471.570470 12735.545297 16360.922252 16730.698753 15652.828240 15178.454770 15816.942311 15037.496109 15837.201641 15893.299270 18269.356717 19059.696911 19169.941634 19836.857390 21209.937968 21614.491807 25065.665829 24179.038960 31688.215737 30666.945255 40952.138713 46642.111588 41467.150509 47568.821746 29622.774810 26740.193140 21761.194186 17547.599419 22201.423138 21304.531654 24399.107140 27199.947045 24112.572642 26061.032729 22134.341563 21795.660892 20913.575506 20419.622446 20815.407762 21088.098422 20972.001967 21964.440451 20554.742150 21344.293535 19578.182185 19539.611972 18671.537210 18265.216741 18132.094518 17903.674978 17737.418466 17714.198186 17202.946450 17134.895135 16521.631052 16289.190228 15861.262446 15611.992544 15296.531527 15183.103480 14759.661054 14792.762474 14164.809624 14257.677083 13504.179218 13590.790050 12828.555157 12916.979939 12174.858341 12296.987487 11539.345247 11700.338650 10903.936038 11083.043717 10264.883704 10443.409503 9633.284748 9809.483380 9018.806804 9198.865659 8421.101502 8606.101487 7835.083858 8019.193611 7259.240231 7436.426516 6697.269854 6866.198095 6153.911388 6316.453831 5631.396080 5788.561538 5129.820067 5279.977401 4649.630683 4789.782747 4193.158363 4321.014282 3764.158078 3879.082537 3366.337079 3469.073796 3002.131722 3094.115135 2672.234525 2755.048663 2375.741058 2450.804365 2110.637054 2179.027943 1874.421442 1936.818518 1664.714197 1721.471349 1479.706767 1531.039438 1318.353899 1364.547502 1180.301635 1221.851159 1065.638933 1103.291614 974.593604 1009.290102 907.486716 939.418810 865.322934 894.391639 848.718559 877.206592 30258.833207 29338.016847 28968.491062 26601.061809 25364.697383 23804.545568 20529.316242 16234.706758 12777.571060 10218.793784 8148.627507 8417.160168 8787.811601 2158.382646 -5097.932324 -4320.497332 -6596.875549 -10890.195333 -8412.266184 -5549.258832 -7985.671334 -11252.516896 -9609.103911 -7993.786118 -6787.658474 -5775.565438 -4896.161491 -4124.005287 -3444.396110 -2848.711572 -2331.230214 -1886.959388 -1510.494538 -1195.712869 -935.945339 -724.319470 -554.090981 -418.891645 -312.885327 -230.850155 -168.208749 -121.023661 -85.969379 -60.288166 -41.734914 -28.515326 -19.221316 -12.767195 -8.330236 -5.303034 -3.296201 32557.916672 32608.338055 33453.564009 32391.504802 29244.117308 30986.615423 29096.626983 21836.969394 17646.922171 15488.125345 11256.234504 11793.664446 4536.535350 -3539.208095 -9853.004129 -2990.681051 -4030.543627 -10289.544322 -8256.434066 -3877.231132 -5827.446161 -10694.528837 -9609.903421 -7894.432927 -6801.858840 -5801.924490 -4920.636264 -4145.262769 -3463.224420 -2865.811331 -2346.925814 -1901.308808 -1523.446029 -1207.212224 -945.984124 -732.943125 -561.388009 -424.978091 -317.891238 -234.909794 -171.454090 -123.580136 -87.953033 -61.803762 -42.874782 -29.358865 -19.835063 -13.205062 -8.631868 -5.476682 -3.206248 948.338357 1022.920938 1116.532462 1220.354502 1325.626626 1422.555492 1500.386568 1546.414570 1538.109932 1408.893233 1105.995539 925.228647 842.353291 722.019183 609.049661 509.303233 421.722651 345.437617 279.671190 223.656583 176.587140 137.601747 105.795507 80.245080 60.039725 44.311367 32.259378 23.167899 16.415214 11.475891 7.917097 5.390787 3.623411 2.404580 1.575787 1.019941 0.652162 0.412027 0.257258 0.158772 0.096878 0.058453 0.034882 0.020592 0.012027 0.006951 0.003976 0.002249 0.001255 0.000683 0.000340 931.630804 1005.676265 1095.922105 1195.681546 1296.189012 1387.112039 1456.007893 1486.500199 1456.125339 1342.934379 1160.996505 997.980825 855.297015 725.416884 611.779922 511.729341 423.957349 347.517456 281.604159 225.437106 178.204755 139.046821 107.062673 81.334814 60.958497 45.070821 32.874983 23.657412 16.797221 11.768592 8.137406 5.553754 3.741942 2.489388 1.635503 1.061340 0.680432 0.431048 0.269875 0.167024 0.102202 0.061843 0.037013 0.021914 0.012838 0.007442 0.004269 0.002422 0.001356 0.000744 0.000395 -2.147037 -1.654459 -1.954622 -1.523509 -1.376228 -1.175241 -0.809452 -0.794175 -0.496373 -0.503282 -0.304928 -0.312158 -0.186157 -0.191207 -0.112698 -0.115956 -0.067630 -0.069677 -0.040232 -0.041500 -0.023729 -0.024506 -0.013879 -0.014349 -0.008051 -0.008333 -0.004633 -0.004801 -0.002645 -0.002744 -0.001499 -0.001556 -0.000843 -0.000876 -0.000470 -0.000490 -0.000261 -0.000272 -0.000143 -0.000150 -0.000078 -0.000082 -0.000043 -0.000044 -0.000023 -0.000024 -0.000012 -0.000013 -0.000007 -0.000007 -0.000003 -0.000004 -0.000002 -0.000002 -0.000001 -0.000001 -0.000000 -0.000001 -0.000000 -0.000000 -0.000000 -0.000000 -0.000000 -0.000000 -0.000000 -0.000000 -0.000000 -0.000000 -0.000000 -0.000000 -0.000000 -0.000000 -0.000000 -0.000000 -0.000000 -0.000000 -0.000000 -0.000000 -0.000000 -0.000000 -0.000000 -0.000000 -0.000000 -0.000000 -0.000000 -0.000000 -0.000000 -0.000000 -0.000000 -0.000000 -0.000000 -0.000000 -0.000000 -0.000000 -0.000000 -0.000000 -0.000000 -0.000000 -0.000000 -0.000000 -0.000000 -0.000000 -0.000000 -0.000000 -0.000000 -0.000000 -0.000000 -0.000000 -0.000000 -0.000000 -0.000000 -0.000000 -0.000000 -0.000000 -0.000000 -0.000000 -0.000000 -0.000000 -0.000000 -0.000000 -0.000000 -0.000000 -0.000000 -0.000000 -0.000000 -0.000000 -0.000000 -0.000000 -0.000000 -0.000000 -0.000000 -0.000000 -0.000000 -0.000000 -0.000000 -0.000000 -0.000000 -0.000000 -0.000000 -0.000000 -0.000000 -0.000000 -0.000000 -0.000000 -0.000000 -0.000000 -0.000000 -0.000000 -0.000000 -0.000000 -0.000000 -0.000000 -0.000000 -0.000000 -0.000000 -0.000000 -0.000000 -0.000000 -0.000000 -0.000000 -0.000000 -0.000000 -0.000000 -0.000000 -0.000000 -0.000000 -0.000000 -0.000000 -0.000000 -0.000000 -0.000000 -0.000000 -0.000000 -0.000000 -0.000000 -0.000000 0.000000 0.000000 0.000000 0.000000 0.000000 0.000000 0.000000 0.000000 0.000000 0.000000 0.000000 0.000000 0.000000 0.000000 0.000000 0.000000 0.000001 0.000001 0.000001 0.000002 0.000003 0.000004 0.000008 0.000008 0.000018 0.000019 0.000042 0.000040 0.000102 0.000077 0.000178 0.000121 0.000218 0.000151 36282.839170 36371.238825 35966.715853 34198.754825 32941.893895 31633.602513 36466.243370 32044.773454 39648.957493 30899.388040 30970.122952 35674.211470 34448.874317 35753.217093 35296.555641 33038.943458 35851.130385 33978.265745 30150.659394 30427.931806 32762.160780 21522.762067 38216.871455 37185.139497 37964.472258 38884.094225 29629.433229 29751.519532 29476.368797 26041.643173 30331.934672 22636.578428 25766.645440 36252.206813 40354.377863 33691.683797 34200.904298 33063.722863 34033.860604 33346.442216 24210.878709 30326.444379 27200.022160 25089.637457 34275.796720 35343.380452 33555.149303 32728.448665 33451.617172 27224.258092 34398.541679 29550.153221 28685.122979 19720.005182 25836.864270 33663.389447 34612.876162 29234.608033 32374.113345 28749.121523 26850.556080 25043.958951 22904.781405 25528.483069 18797.477240 26795.462164 32687.461170 32116.425022 29426.908706 30545.201929 28135.024039 26778.667218 26303.257067 22316.612187 22650.006427 24312.256960 22442.334233 27928.679014 30344.443649 28087.053460 29598.044524 27553.017704 24505.152004 25646.820836 22201.799641 21377.851302 16739.886351 16386.131455 31191.164978 29257.792896 27779.975459 24508.938586 26673.905301 22661.659390 26364.608062 22480.098443 19639.534391 17810.324163 17833.191467 28759.983403 25368.309622 28137.556309 26384.020866 25985.183198 23478.726875 21949.227660 21967.876566 18871.165925 17327.808681 14281.588847 27634.833457 26883.134045 25013.269519 21536.342195 24674.010211 21689.553480 20766.477993 16582.785985 16562.870920 13853.507610 12395.942514 22604.722523 22250.981288 21154.633331 21039.743179 22378.134131 21614.808725 17058.451322 16394.356285 14055.256846 14449.312203 9131.511811 24097.603412 23683.116458 23591.878862 17425.262265 19266.367056 14568.421026 16390.449869 13085.782784 13062.847474 9503.421054 9801.962046 19463.729167 19237.915806 16104.084600 17747.101386 16387.381095 12360.648046 11193.456431 9558.444183 10973.090850 7340.653643 3838.332576 22640.923031 15706.754193 20482.799503 14610.393052 16161.400724 12803.044655 11832.185926 10036.681908 8790.224823 6876.414786 1108.152806 16969.283852 17569.807943 14227.128828 13409.602607 10657.944268 11350.768216 10734.418613 8476.371062 4221.125477 -649.357552 -4271.438873 14937.115199 15724.580807 15890.873457 12498.696809 12828.464725 10880.167138 9957.383706 9461.568874 -308.519432 98.214336 -27028.515101 15620.618847 13527.032197 12984.428203 9910.990915 10899.833210 10193.079049 8701.760456 5952.740312 4338.481332 -76.280009 -20706.400306 15439.260905 12993.949857 12611.207090 11323.638159 10880.192207 10446.659987 6393.118076 7208.170601 5574.971544 -2576.881479 -18078.558900 15771.947272 12257.846261 12332.509657 11351.805252 10334.285402 10213.897616 8244.365510 5139.708258 635.097705 1015.570373 -6833.696181 14150.045583 12203.328823 11974.648304 11924.447494 9790.685621 8589.723645 7613.236581 979.716888 3877.415076 659.092678 -7451.843212 13031.709869 11663.647883 11937.366896 9862.764006 10366.468047 8509.582236 5058.319016 6267.620756 2560.097705 3612.306097 -6375.064055 13475.903877 11536.913448 12751.302550 9676.497646 9322.120824 9935.544421 5954.353120 4998.321275 3892.735157 -1960.756389 -300.353382 12581.048169 10945.231762 12438.895487 10507.044840 7684.514370 7130.417388 8371.809229 6685.358900 302.631192 8853.246098 -2974.940725 12203.866643 11174.448145 12404.971264 10412.090847 8928.878925 6662.241125 6278.198762 5143.024400 879.924718 5103.610340 4749.054093 13090.777573 11822.720119 12390.561239 10307.900317 10037.554811 8344.588919 4262.915911 8645.883019 4729.609205 4945.191903 2963.795167 13608.360673 10315.148046 13174.695994 10879.725763 8369.619255 7275.835422 6291.213394 5097.242637 1210.753612 5348.273195 5446.220269 14012.876441 11129.871303 13075.220501 11174.135067 9037.401125 8192.304685 6843.606643 4146.406398 9760.434906 2705.298344 7609.715969 14687.631258 12228.259909 12935.877237 9856.066852 10743.396334 9470.272859 7863.837852 7100.754602 4544.262701 5324.822552 3351.567875 14514.675951 12508.725160 12838.074909 9878.320806 10347.555721 6403.766782 6863.899286 2845.085573 6711.766499 6843.365552 17.178547 12495.990763 12494.444115 12895.925739 10128.215775 10779.692963 7166.676899 5491.794331 8743.940138 5184.723342 2287.138437 1923.701269 13927.498551 13408.360718 12963.067158 10529.995258 10528.638841 8924.469133 6427.556754 6814.552210 3521.530786 6015.171873 7289.266330 14651.441245 13921.750421 12895.291932 11149.650292 9478.623336 9340.293258 6051.097914 5092.494079 5644.597950 573.157245 4086.963996 14764.833173 12828.791909 12605.196392 12041.165128 8599.942483 9604.526252 5667.011723 5635.238634 7029.318258 5383.274521 2272.658334 14601.214202 12878.802564 12283.440449 12235.301661 8426.954425 10200.735423 7050.089619 5412.966509 7053.430489 5047.434136 3143.579280 15153.463924 13282.365742 12543.918343 12078.805241 9261.439781 9353.127353 8319.282829 4705.654973 6702.421036 3637.818263 3947.210991 15812.182164 14144.754863 12990.489673 11570.530036 10757.684740 8001.214123 8911.439410 3559.361896 6399.358490 5780.173968 1925.856186 15929.326669 14098.533505 13314.398898 11104.908434 11524.854224 6760.877726 9224.460850 2916.317773 5951.836573 5390.094951 801.004712 16174.519893 13990.419505 13374.004164 10363.004049 11637.406445 6983.633782 8451.920359 3443.202565 4798.296887 2496.093087 1946.423163 15237.497890 14861.363575 13661.278077 11525.443251 12082.668930 8693.370531 9885.824985 4906.363011 3949.545736 3930.569502 3696.739040 17666.254894 15139.000866 14846.195026 11430.692869 10482.378174 7844.786576 7588.742559 7278.827437 1825.262965 4243.978489 2813.522249 16909.276791 15435.646711 14671.197282 13108.941597 9797.869183 9490.715123 6797.589795 7500.430973 949.734508 4450.459231 751.259386 17592.197490 15270.016105 14705.596609 14367.527808 9769.370885 10044.029352 5886.273411 7672.291706 -424.631972 4506.097426 2885.438210 18227.586353 18365.146922 13916.880501 13760.870548 9822.137378 10668.940281 6631.060743 7852.319203 1271.056230 5337.165122 7037.259247 19286.493882 17831.710157 15400.771020 13674.252585 10154.482587 10480.673453 5676.289031 6615.927048 2496.033402 2761.424275 3695.418713 19304.795746 17012.061497 15540.744097 13612.529553 10590.771081 9385.341159 6469.928267 7180.524198 2284.919794 1600.549475 8253.683804 24019.713846 16250.586322 18322.889414 13846.005982 11515.738804 10746.526235 8057.540990 7530.419788 2889.948399 3104.462849 5938.978575 23072.612031 18605.386850 13677.467669 14121.037354 14255.616754 10594.668432 6928.047686 6512.802272 3987.316479 1966.679759 6631.797829 21482.085488 6947.108737 15690.493418 16598.644894 15399.139459 10619.045391 10245.605331 5496.867492 5676.879293 595.767047 5110.392533 12970.938505 6377.686714 8181.273008 16556.072109 14803.035673 10102.622644 9806.711046 5732.924886 5512.780668 1319.465799 4077.019604 8147.255627 -2314.929219 7851.482758 15015.511604 14921.289680 10986.139085 8699.824970 7180.957927 4987.178132 1155.386518 4424.002490 11806.459049 12083.782955 18794.384728 16876.658168 15045.493728 12128.388846 9617.485182 8551.074980 4978.122517 3241.584626 4273.494612 23183.255535 21209.489964 16503.489378 17073.833040 13848.989904 13094.168878 10857.356667 8525.850188 5023.252735 4584.436085 3265.060090 34755.635762 23219.241057 8392.126247 15252.390694 15997.486032 13873.925077 11018.115076 9185.547975 5431.250013 3544.312019 3836.944924 23179.517540 1814.372809 6032.907726 9030.535830 15808.605102 13494.265624 10461.810700 7983.862401 6300.891184 3549.845217 4226.363908 17948.566467 9818.312864 9859.049829 10631.838810 16858.989236 12875.062006 11013.130711 7869.352368 7296.739422 3421.521872 3416.468968 19102.092386 17391.535620 18203.819592 16745.107951 16217.754615 13258.999430 10982.617870 8757.716217 6327.237023 2710.918390 3800.814990 22356.677913 24377.431322 21057.026087 17283.784135 15723.808358 12570.511510 12159.106989 8409.647584 6285.608394 4552.296144 3349.878109 26263.042289 34443.219854 19746.089241 11306.711837 15775.864193 14376.535412 11831.228471 9173.882511 5757.376100 5626.114059 1554.287574 24645.899696 25789.048943 2782.201793 5146.565873 7366.150090 14559.764187 11616.689698 9419.740545 5230.959275 4313.680735 2271.267444 18893.540819 15106.440635 4368.083502 10089.088981 7905.347012 14934.602897 10911.298257 9686.981468 5771.702388 4163.974436 3055.585191 17419.740173 16569.014482 13985.426075 13897.194429 15182.152236 12698.404372 11697.120938 9108.488679 6763.074250 4983.014030 1940.514333 18148.356636 20645.615012 24556.721909 19690.907976 17161.805255 13853.036032 10945.226609 10075.075434 6391.661140 4682.057511 3050.432098 18565.797602 22190.268752 29809.199369 18267.870695 9636.842136 13131.148847 11694.829174 9787.171509 6473.503205 3908.066174 4610.262808 17503.010236 19301.529868 18394.898186 573.605757 5628.739301 6906.703975 12068.407261 9601.114812 6681.563806 4332.420219 3265.482229 15808.913186 14817.370647 11835.443132 4373.020392 8192.568464 7401.371129 13193.446273 9073.450082 6317.586249 4996.303673 2835.768918 15089.727496 14510.780214 14913.366875 13320.984428 9918.245183 12417.451343 9914.413283 8926.978255 5704.899099 4731.606005 3651.153237 15056.793724 15345.034262 17319.484680 20095.813393 16266.191404 12215.105639 11143.807521 8943.027074 7246.790643 4426.874425 2876.472234 15024.483070 16061.110263 19589.592128 26605.165640 15396.345871 7654.225402 9655.171842 8631.873068 5373.706482 4595.038464 1860.900191 14530.653295 15285.791610 17425.394705 16870.045415 -769.886384 4922.188923 5712.616783 9002.311842 6125.852929 3546.100450 2890.058499 13715.632795 13717.368565 13204.130031 10853.633190 3449.247475 5691.338952 5844.631934 8885.492803 6132.340692 2843.626474 3045.150435 13005.360263 12914.029748 12528.266376 11790.191090 9547.139986 8852.970760 8642.462382 6667.794443 5109.133474 3529.339942 2474.561746 12488.453573 12691.291323 13029.203705 13757.208467 14551.655335 12483.174091 7975.845099 7017.526090 5491.786874 3859.491874 2413.006862 12006.800514 12484.695885 13480.445360 16142.281038 21274.599912 11914.621902 6638.057054 6905.015855 6430.696199 2806.937288 2593.960812 11427.359403 11920.705827 12688.034533 14232.003391 13352.440010 -2086.466648 5722.953203 3737.477602 6407.994292 3865.302527 1959.365028 10769.631007 11137.231733 11335.551582 10801.244589 8261.576027 2498.691819 2761.153998 4600.292792 5567.745359 3645.311892 1865.615847 10128.150590 10468.366383 10647.430195 10376.211373 9361.702385 7281.667101 7073.501740 6113.864834 3542.765089 4177.896514 2242.740777 9539.619019 9960.932181 10414.229538 10892.701625 11416.434354 11636.461512 9024.739879 6072.236457 4495.571109 3896.504339 2413.219632 8972.178200 9476.345187 10168.437140 11310.259117 13843.907216 18465.584949 8808.774954 5866.923174 4778.974657 3269.241146 2427.189938 8388.706232 8903.122650 9591.568566 10555.349717 12147.092008 11628.828394 -3055.343886 3924.677932 3452.279264 4833.288519 2590.393034 7790.046468 8263.516164 8816.214964 9280.863824 9187.117183 7092.322223 1676.273512 1100.363006 3952.073834 3885.273650 2941.402579 7202.861886 7646.414721 8146.159491 8559.898129 8659.489887 8220.307880 5939.553553 6331.202832 4240.902947 2544.615663 1865.133451 6644.545343 7089.302896 7635.498754 8243.105309 8863.021094 9243.400701 8964.987568 6220.515700 3656.936155 2739.256269 1987.702792 6111.277196 6565.241255 7169.535028 7969.052442 9143.320877 11201.672010 13007.818011 6394.412608 3632.632257 3352.512454 2242.794186 5591.199450 6035.232236 6636.366173 7432.992646 8519.790602 10150.511230 9586.168809 -553.006227 3213.584550 2736.489858 2320.097742 5079.974637 5489.915585 6029.021979 6683.234140 7371.815167 7839.642504 6843.335954 2220.924490 1095.525595 2538.415048 2584.967211 4583.982695 4948.364365 5411.497577 5940.145863 6469.882162 6974.145387 7481.576419 5250.035588 5692.572473 2718.528070 2397.620086 4113.813857 4433.726504 4832.615230 5280.245629 5736.997435 6165.922839 6589.230990 5675.654548 2319.415284 3118.528998 2332.039777 3677.948604 3959.717516 4308.717711 4700.985572 5114.975044 5557.545968 6259.767015 6297.840782 5223.579456 2883.631787 1783.160083 3280.764522 3531.270529 3840.933944 4187.954996 4546.015492 4875.243856 5112.893013 4812.543258 3502.918058 2510.658492 1754.597012 2923.159660 3148.626424 3427.803669 3740.151208 4055.542471 4323.393022 4470.791812 4445.070531 3516.368856 2584.776522 1952.799735 2603.560925 2809.250649 3066.133437 3357.628056 3659.093426 3928.487167 4085.274347 4004.514097 3404.945863 3387.634731 2067.757612 2318.746563 2508.309451 2748.640547 3029.655337 3339.828714 3665.090817 3977.978486 4155.028218 3778.150575 3199.884633 1828.670598 2064.775298 2239.707278 2464.859834 2736.165970 3055.254897 3441.596368 3969.137861 4812.261954 5694.277425 2591.566330 1654.319069 1838.089528 1998.061517 2205.475108 2458.570987 2762.415791 3142.244669 3681.448985 4690.649709 5593.649976 2126.153822 1095.596050 1636.410305 1780.486581 1966.589255 2191.340564 2453.222838 2752.765406 3076.721785 3353.603147 3141.218690 1228.839270 1478.233069 1459.004930 1586.956661 1750.224687 1942.604083 2155.202605 2370.818961 2546.155774 2584.120388 2385.798482 1883.673757 1625.222028 1306.311900 1419.227885 1561.132445 1724.108553 1896.471756 2059.198120 2180.953303 2220.324379 2158.904585 2041.629128 1824.363431 1179.315535 1279.429792 1403.429877 1543.180565 1687.717642 1822.573980 1931.219506 2003.036348 2041.793204 2088.696320 1886.055797 1079.126837 1169.320876 1279.407751 1401.970054 1527.661656 1645.974449 1748.545514 1838.312243 1952.420189 2155.449170 2307.349759 1007.236135 1090.374631 1189.989492 1300.198690 1412.506887 1517.665952 1607.670019 1678.405500 1733.080210 1736.748871 1543.985851 27742.342116 31248.667245 25577.570525 26437.572994 22134.394524 21210.933839 19085.620738 15021.890066 13661.049486 11777.425934 8512.502031 254.577350 -10005.283014 -11210.451088 30387.870552 25521.380179 23902.231453 25312.497616 23643.329575 18541.878449 19572.024537 17482.101472 15680.083247 10727.678929 8530.556452 5544.185427 4855.018451 5649.296862 24069.324286 28435.606290 21930.244916 18654.227030 17938.006351 14540.494533 15107.749883 13070.440986 11279.947932 10852.300570 8145.151030 5003.338001 1842.994009 2069.226811 20808.888523 21534.412533 25672.607038 17673.435638 16014.662362 17581.040600 16681.742909 14044.058668 11753.897242 10478.449697 7523.770093 3254.703425 2589.533394 2616.067186 20590.891649 21846.800814 19449.780758 14660.053091 16399.380486 15646.294255 14066.643689 12778.908262 10878.039826 8658.140868 6903.695495 4470.762210 2906.289801 2650.706593 15473.285302 20360.637747 14759.015886 20410.083491 16823.830630 14772.072446 14396.254630 11707.262654 9624.269772 8386.636921 6565.188759 3655.012447 2651.535014 2072.284645 20198.714325 14949.291917 15212.808465 16188.247024 13752.457939 12463.374080 11590.217598 10764.042739 9486.418635 7750.279849 5911.599288 3593.652559 2262.248265 1856.483631 15882.122619 12955.948345 15045.948877 11962.277625 11172.897674 9850.999437 10643.824396 9217.873266 7758.936564 6135.076791 5071.354452 3102.404184 2397.496712 1994.227202 18059.992556 15490.892452 6910.156370 11472.797634 10737.172261 7822.712693 5766.776991 9758.687474 6111.278585 5525.313855 4573.891307 3120.387020 2298.048689 1278.568081 11132.276190 8230.638239 9238.975675 9407.352320 10161.054349 7149.787867 8447.082639 6939.866277 3950.336176 4639.255901 4277.289713 3018.666962 1317.150321 907.440258 9000.619315 9863.258526 8895.356134 7258.146056 5217.192446 7967.163118 5034.036087 5324.490605 3237.392517 3379.503222 3235.929493 2452.547618 1980.795845 1329.084851 8845.085185 6274.977184 9066.489970 7872.936248 3409.983627 4451.044016 5557.052331 3584.898401 5626.329859 1601.067483 3552.326785 3304.410030 1916.405137 -280.267387 5359.819174 5786.007731 72.556460 5796.593698 4985.190491 3442.411940 7821.242389 7523.619585 4360.442895 5497.394539 4635.276119 3402.979450 1971.784893 378.908589 2481.037952 3129.456849 -2652.594988 3608.890216 786.406283 5119.246439 3343.802658 2477.679044 6103.231031 4741.329319 1524.220624 3428.392344 1301.242870 1569.198726 3708.389889 -3411.405247 -6319.781864 1208.859434 -7139.233185 5043.102494 2386.995272 -2859.117127 1523.054398 -951.132409 6128.366340 1209.998471 1278.677885 2465.475378
</DataArray>
<DataArray type="Float64" Name="Velocity" NumberOfComponents="3" format="ascii">