<VTKFile type="PolyData">
<PolyData>
<Piece NumberOfPoints="1945" NumberOfVerts="1945" NumberOfLines="0" NumberOfStrips="0" NumberOfPolys="0">
<PointData>
<DataArray type="Float64" Name="Pressure" format="ascii">
 24097.979656 24427.516006 24458.958456 24926.049854 26421.293025 29466.500911 30729.351267 32454.918782 31176.345648 29309.440418 31713.456786 29765.696410 30191.994611 27610.937517 30954.569055 29210.504134 31308.416774 29465.992702 29747.102827 27430.340528 28103.446832 26110.662384 25632.691018 23584.923470 28411.974106 27153.719860 32006.806997 32877.554066 25825.150000 24723.931581 22926.776986 24877.572962 22441.564227 23403.327572 26138.634015 27833.408964 26183.626285 27279.402962 26095.512384 26364.010223 24976.351544 25584.063750 24562.782871 23702.737311 24505.207468 24574.993371 21902.507404 21489.119229 24596.530834 24968.049149 24623.438013 25769.434036 21784.023749 22960.384390 21131.232862 22838.010736 22799.608276 24149.402513 23413.437234 24753.207428 22355.034629 23132.791059 23947.520977 24566.668782 23025.490173 24804.717837 21953.475652 23133.174507 22756.353067 25009.994247 23663.481731 25196.692151 24207.970228 26062.194195 23017.531464 24449.012830 25283.093607 27697.331020 23381.670901 24752.593306 22712.579455 24493.361975 19795.280798 21158.319472 19463.429220 20650.888742 21922.106400 23362.605629 24017.712935 26191.903259 22633.483573 23629.623851 22215.560363 22574.094909 25257.074193 25920.400981 27989.840362 26356.301623 36062.230116 35679.990737 46630.639232 51236.495742 46959.634142 44886.461574 35764.285264 26535.100932 27432.705864 21519.418521 24940.155675 23373.610022 24919.779594 24002.412671 25881.162118 26227.748498 25856.721966 25919.626917 25357.761486 24859.936319 25112.804025 24558.803127 25054.488565 25151.406187 24524.696452 24934.149877 23340.206723 23301.357490 22059.985086 21725.805198 21073.940591 20912.288892 20286.384660 20386.140222 19471.445678 19617.621957 18597.299847 18639.184467 17770.553241 17767.698646 17037.365463 17081.516271 16344.531039 16450.477986 15624.445537 15733.353496 14872.034816 14937.406866 14132.487184 14169.238392 13439.852897 13484.326200 12791.414702 12857.092571 12168.490023 12244.212478 11561.819569 11635.535426 10973.796007 11046.987109 10405.665123 10486.560965 9850.566749 9942.055276 9298.574764 9395.474877 8744.774788 8840.030323 8191.284451 8281.992069 7643.140433 7730.567467 7103.929959 7189.838782 6575.067007 6659.232368 6057.756378 6138.298167 5554.771662 5629.729361 5070.586351 5138.945903 4610.311261 4672.107520 4178.470233 4234.445546 3778.208283 3829.424525 3411.032915 3458.535373 3076.999154 3121.545531 2775.209087 2817.124377 2504.450159 2543.668366 2263.757085 2300.025155 2052.723099 2085.853224 1871.510652 1901.561274 1720.639363 1747.979184 1600.686631 1625.936403 1512.225291 1535.343233 1456.392696 1477.079370 1433.530462 1453.792493 25661.042367 25359.000110 22589.768468 17724.861913 15702.000669 14857.750444 10895.860156 8223.393395 5166.252364 2734.950931 2937.978663 322.181868 -3290.129012 -3158.415906 -2029.986473 -3907.403322 -7114.097776 -6834.469113 -5342.488258 -4905.457924 -8500.555879 -10426.546490 -9693.935887 -8683.745747 -7752.530908 -6858.734952 -6007.182956 -5209.184207 -4474.232179 -3808.193974 -3213.336985 -2688.916362 -2231.942640 -1837.930642 -1501.525764 -1216.976533 -978.466236 -780.333909 -617.215922 -484.133153 -376.541052 -290.353686 -221.948656 -168.157353 -126.243870 -93.875350 -69.086347 -50.240089 -35.992429 -25.283730 -17.521080 28486.315752 27898.648672 24532.564486 17469.534856 14906.924825 15268.967361 9465.064712 7986.870897 4372.440676 1314.240353 3462.596026 251.363714 -3740.256347 -2912.359913 -1358.735122 -2591.630410 -6196.375900 -6568.586010 -5470.001775 -6808.742387 -10165.273312 -10658.763600 -9576.587138 -8675.886371 -7759.390189 -6869.423042 -6020.139257 -5223.741897 -4489.674775 -3823.831700 -3228.595966 -2703.375028 -2245.328846 -1850.097187 -1512.418928 -1226.606852 -986.885463 -787.618632 -623.456632 -489.427131 -380.987688 -294.051251 -224.991941 -170.635880 -128.240550 -95.465478 -70.336721 -51.206820 -36.708551 -25.678775 -16.921092 1513.011097 1560.116698 1617.501479 1677.805834 1734.265514 1779.805342 1807.081899 1807.347599 1759.455448 1597.378311 1302.328682 1114.539584 1009.497066 881.940254 759.572624 648.783297 550.035087 462.996545 386.968135 321.087343 264.435118 216.092075 175.166736 140.809065 112.217116 88.640923 69.385507 53.813464 41.347030 31.469249 23.723969 17.714493 13.100923 9.596365 6.962267 5.003192 3.561356 2.511184 1.754140 1.213954 0.832388 0.565548 0.380773 0.254066 0.168006 0.110096 0.071472 0.045911 0.029082 0.017958 0.010291 1490.421056 1537.426622 1592.210067 1649.498282 1702.618628 1744.063080 1764.812139 1751.751091 1683.640906 1539.669389 1340.889185 1167.348958 1019.721555 884.632640 761.905304 651.106004 552.308945 465.156574 388.975079 322.923572 266.096212 217.580808 176.489572 141.974362 113.234324 89.520267 70.137845 54.450160 41.879777 31.909842 24.084033 18.005224 13.332847 9.779153 7.104603 5.112712 3.644633 2.573771 1.800636 1.248106 0.857193 0.583365 0.393433 0.262964 0.174194 0.114354 0.074370 0.047861 0.030385 0.018892 0.011455 -12.736682 -10.640118 -11.713258 -9.852365 -8.869671 -7.965976 -5.908997 -5.835268 -4.050637 -4.083962 -2.775493 -2.813898 -1.890375 -1.920085 -1.278081 -1.299472 -0.857560 -0.872618 -0.571044 -0.581517 -0.377401 -0.384617 -0.247573 -0.252501 -0.161217 -0.164553 -0.104224 -0.106463 -0.066898 -0.068389 -0.042637 -0.043622 -0.026986 -0.027631 -0.016963 -0.017383 -0.010591 -0.010861 -0.006569 -0.006742 -0.004047 -0.004157 -0.002477 -0.002547 -0.001507 -0.001550 -0.000911 -0.000938 -0.000547 -0.000564 -0.000327 -0.000337 -0.000194 -0.000200 -0.000114 -0.000118 -0.000067 -0.000069 -0.000039 -0.000040 -0.000023 -0.000023 -0.000013 -0.000014 -0.000008 -0.000008 -0.000004 -0.000004 -0.000002 -0.000003 -0.000001 -0.000001 -0.000001 -0.000001 -0.000000 -0.000000 -0.000000 -0.000000 -0.000000 -0.000000 -0.000000 -0.000000 -0.000000 -0.000000 -0.000000 -0.000000 -0.000000 -0.000000 -0.000000 -0.000000 -0.000000 -0.000000 -0.000000 -0.000000 -0.000000 -0.000000 -0.000000 -0.000000 -0.000000 -0.000000 -0.000000 -0.000000 -0.000000 -0.000000 -0.000000 -0.000000 -0.000000 -0.000000 -0.000000 -0.000000 -0.000000 -0.000000 -0.000000 -0.000000 -0.000000 -0.000000 -0.000000 -0.000000 -0.000000 -0.000000 -0.000000 -0.000000 -0.000000 -0.000000 -0.000000 -0.000000 -0.000000 -0.000000 -0.000000 -0.000000 -0.000000 -0.000000 -0.000000 -0.000000 -0.000000 -0.000000 -0.000000 -0.000000 -0.000000 -0.000000 -0.000000 -0.000000 -0.000000 -0.000000 -0.000000 -0.000000 -0.000000 -0.000000 -0.000000 -0.000000 -0.000000 -0.000000 -0.000000 -0.000000 -0.000000 -0.000000 -0.000000 -0.000000 -0.000000 -0.000000 0.000000 0.000000 0.000000 0.000000 0.000000 0.000000 0.000000 0.000000 0.000000 0.000000 0.000000 0.000000 0.000000 0.000000 0.000000 0.000000 0.000000 0.000000 0.000001 0.000001 0.000001 0.000001 0.000003 0.000003 0.000006 0.000006 0.000012 0.000012 0.000024 0.000024 0.000047 0.000048 0.000091 0.000094 0.000176 0.000181 0.000333 0.000343 0.000621 0.000637 0.001145 0.001160 0.002107 0.002054 0.004044 0.003368 0.006230 0.004762 0.007297 0.005630 31173.574308 28704.330724 28847.921881 33640.972530 26040.732660 25091.412124 31054.310579 25170.900554 25389.567814 22190.299874 21778.349978 28655.998390 26746.418418 22848.063476 25275.056328 21165.122992 23016.421505 23323.863718 21002.167688 21777.355712 21550.120236 20191.681479 27210.289036 24907.126257 28783.656556 24767.068142 24566.509066 23884.219497 18522.830464 19709.812989 16301.595825 16900.807698 23673.623591 23120.191871 25038.682821 25413.587859 25586.897962 23714.410545 24409.826114 20656.760708 18886.212123 25540.300577 21068.616338 15513.757416 25970.878866 24671.027542 30188.695571 25962.154115 26144.381086 25190.569353 21926.352755 21440.865429 20081.332488 20837.038482 20791.783418 28230.071281 26322.152051 24377.672353 25222.452661 22479.764286 21144.778552 21789.632120 18569.283575 18594.636975 11784.410678 20920.537466 21853.783267 23853.250166 22826.486308 22575.280926 22683.373946 19557.402273 20189.144139 18926.534309 17684.873712 21213.160100 16162.115755 23151.832287 24285.201568 23488.962378 20387.170836 24665.976050 19054.855067 20579.888535 17499.201897 15080.305885 15610.457051 15495.776977 22442.712538 22845.671365 23735.387760 22113.030030 21739.499265 19664.379278 22012.392927 20525.880174 17765.562727 15668.785788 13150.962188 23073.718411 21989.822370 21539.350506 22380.639079 18739.640930 21675.768851 18792.889370 17265.405514 15503.590176 13059.084509 12651.787270 23622.675971 21089.813897 25432.651669 15812.758107 23952.344366 17423.121668 21439.590620 14473.547051 14897.116293 12825.643516 12782.750286 24945.354372 21163.547749 20974.686011 21148.299319 19071.681461 16165.238571 16018.021604 16266.830322 13980.467972 15955.713588 13758.200066 23831.549131 20669.055421 20763.147055 19598.100692 18617.847052 16980.545593 18252.203641 15179.997059 14894.590784 13892.532702 10173.672842 22724.336639 23326.714868 19516.435812 22518.047203 22380.398162 16295.635048 18203.345309 17127.881296 14941.930894 7775.424725 4395.308837 23329.206223 21816.059702 21969.005389 19233.986950 19101.780009 17282.816910 14809.204266 14267.610995 6580.910317 7243.330870 3256.938769 24502.932111 23209.809368 20237.032803 18298.469014 16451.421154 12720.801522 11976.310286 9749.108347 4407.833418 2102.740098 3456.898686 24435.508286 22950.282059 20603.942893 19373.792781 18013.003418 15143.206956 10609.990570 13683.616187 455.998725 375.956459 2791.347833 24694.850563 20216.185914 20088.182214 15066.272766 13699.131579 9521.903883 8840.301122 5456.117500 2726.364417 3996.880444 2798.013123 22661.675344 20996.760147 18741.942667 18442.117757 14808.270898 15094.480570 6832.864705 5896.939966 2858.629679 425.513679 2985.986868 22684.840447 23662.273302 19697.137923 18927.220412 14038.255626 11428.690707 6612.069446 4085.663312 -608.423879 2556.330512 1866.044960 24077.064945 23359.064244 22210.524655 18616.968382 15798.411704 9847.565180 8606.219764 1705.652614 360.988779 347.600525 -11.662564 22739.292439 21140.086061 18922.327245 17039.087275 13002.592123 8599.720492 4007.855376 2865.782943 4948.294210 5060.999888 153.981350 24669.198423 21960.340788 20048.533450 16427.746383 13473.886579 12148.787335 6161.555423 4203.554564 789.353447 3655.215344 1911.236769 22023.076960 19066.650064 18363.893286 13903.117624 11543.741202 9725.066815 8906.257594 4875.995381 2143.399448 612.964332 1343.586494 22850.119378 20398.865825 19354.263180 15602.379352 13159.616091 11907.052032 6231.809071 3988.741808 2043.715602 2863.873156 614.859232 24446.399941 20983.497545 15467.988317 17243.422018 15446.846749 7823.304711 6807.150641 6414.138765 6293.542426 3415.300364 3149.754978 21614.739318 19240.265702 16921.188212 14452.639696 13646.814013 10281.349866 8417.362004 4825.047289 4301.906435 3877.352185 -1002.297759 22231.470545 20354.711224 17297.852849 14798.788638 13704.669278 13123.582666 9523.366343 5327.824725 6456.415095 2527.293388 8045.236214 21950.332747 21037.914752 15921.148044 16685.213474 14809.026161 9530.022096 7386.862264 5459.966416 5610.703639 3433.098894 8335.051295 20566.516053 21659.312544 18249.374926 14148.060545 11456.156483 10733.838469 8407.973030 8052.614973 6800.501171 4553.400220 -7522.766534 20769.697535 17743.210906 17808.351838 14293.329355 12481.842715 11785.358702 9688.962679 4273.674101 1523.381432 10762.351910 2425.524371 20967.487601 18173.130949 17550.376815 16188.265505 14148.310002 10135.066197 8609.762397 7979.616576 3622.871232 4780.441726 -80.362270 20834.595639 17849.198719 16578.469496 15078.844414 12334.474976 11728.003162 10596.808756 9354.761192 3676.930184 7093.130423 7623.442527 19903.111931 16964.507839 14413.918137 13221.133187 12149.492291 11080.034505 9552.290100 8286.608335 5476.939856 6289.320161 444.984814 24540.366897 19956.420132 16320.439018 13648.428931 14167.985735 12575.646527 9358.113537 9049.813635 6420.690546 5032.558848 3767.023730 20198.261760 19527.721355 17228.888287 13770.567105 13119.746984 10974.866058 11240.504202 9379.245966 6663.528966 6048.907805 5252.151660 19806.069268 17373.621222 17464.301015 14004.531177 11219.165416 9923.847852 10669.459665 8139.916113 7391.302337 5352.629515 2812.902105 22068.821019 19602.383814 14372.611050 12604.886487 11715.898955 10530.721880 9335.490113 7699.806503 6770.484067 4298.236946 -11212.632274 23804.682433 18294.030075 15535.790716 12755.261176 13669.423204 11491.838846 7571.529806 8743.082757 7594.984777 2176.642094 -244.933441 21075.363414 16212.597147 14236.467945 12752.990223 13014.986310 9922.583457 10022.586578 6465.023641 5110.344475 -1284.443618 4564.791688 21169.272113 17718.523493 15790.709883 15316.570913 11480.660413 10835.022173 9418.438356 8546.656015 4908.079815 6420.686487 4251.928951 19139.033272 20378.708372 17215.168210 12143.745611 11503.751491 10054.993055 10433.075158 6448.768862 5460.814758 3045.799372 -47.271942 17959.955738 18460.203813 13935.272101 14683.132698 11728.368578 11136.015850 9505.584390 6043.712656 6213.572833 4027.105805 -3435.113155 24262.716161 16768.823336 13240.179020 13199.368247 11540.362688 9816.209953 8958.799180 5051.377182 5873.398752 1429.268786 1367.119856 25751.810417 16302.370175 13069.151311 14293.682594 10755.786485 10108.815580 10094.592416 4656.571390 4247.628177 3509.450956 -389.150527 21963.877762 15104.112516 12972.494989 14040.024334 12113.684693 11137.512348 9013.506534 5892.969871 6447.639061 3516.689028 1916.898683 9985.089443 13000.978721 14244.843672 13543.104364 12117.258216 11257.702086 8752.214635 7142.126941 2702.992458 2836.330085 4201.568939 9648.376059 13247.695650 5800.894073 13580.292900 13866.636873 9784.137670 9802.384386 7755.623109 7205.876816 2720.765690 3169.718594 9000.765972 5399.965794 15316.262227 8239.220207 15108.003691 13840.690259 9992.676342 7679.810619 5351.261186 3624.215084 2184.912054 9805.397319 5614.181329 -1220.555093 12972.037305 12626.891766 12975.347751 9186.844805 5941.090231 4385.004180 4862.499186 2329.242909 8239.424720 -2234.102150 5983.091605 15337.821349 13494.347623 11041.063559 9072.423698 8345.274207 7334.039637 7076.687048 5824.435720 9324.499336 8838.200980 10073.515777 15714.409877 13052.867872 12883.502506 9105.490235 10003.451568 5857.173972 3365.103048 2078.543611 15819.842453 9268.932274 16054.118698 11312.658653 12333.030352 10170.030791 8950.426704 9216.718501 4568.949910 4778.913768 2197.701904 19854.477731 13827.740156 6261.081613 12678.183603 11920.014265 11489.103361 9188.910987 6556.321065 5698.045145 3112.587145 5799.712436 22029.568281 9587.566238 5083.267500 7530.873416 11570.450427 13040.068873 8746.993289 6975.114897 6985.683948 4598.606198 2998.943143 21560.237392 9270.973160 10077.927932 9760.745619 13623.504363 12358.352237 10083.711985 6464.132071 5124.589149 4769.102475 1096.744705 21815.698410 12877.618963 18215.215508 15445.126094 13016.769010 11017.012317 8525.979567 8438.415685 5770.032966 3461.104261 5402.444363 22429.078427 18338.406377 14599.951909 11261.615987 11118.317836 10117.085071 9628.381099 6464.706725 5615.179464 4095.279494 3584.235347 25960.124912 27041.670702 14104.085516 3494.041338 7708.058491 10363.370098 11348.804173 9038.230579 6253.263552 5141.054612 32.714761 25812.329893 19977.473377 1196.249090 3130.517145 3937.948022 11059.453687 11575.070559 7839.074069 6018.692993 5675.030519 3391.812043 21777.480131 16764.255763 5977.314519 6350.461130 5500.954978 11737.646052 10868.380600 8177.953251 5817.460330 5858.290791 5560.320319 20209.432505 17111.876510 13073.287418 12240.232799 12782.933991 12964.773280 11092.983458 8809.858373 8432.770660 5669.369646 1294.156992 20362.523206 19344.522594 18268.030300 14507.982122 12555.296099 11631.123554 9743.691036 10467.428799 6318.316955 6350.958627 5916.349269 20782.393952 22029.159245 23492.669579 16807.361518 4283.363157 10878.988161 10574.369075 8116.820476 7224.986322 5633.354429 5910.444611 20013.351956 20449.105683 15086.103685 109.569956 6350.379868 4587.991746 8819.378637 9646.000434 5977.718027 5343.637766 1838.560829 18540.562359 17727.220353 14942.088508 8083.567919 6672.566152 5838.817270 8748.469877 8808.573018 7000.719816 5131.760214 4726.470368 17593.382284 16985.599838 15393.776040 11646.233872 11600.710556 8383.396167 8398.223854 7804.251688 4902.938181 5017.235372 5255.529760 17100.661907 17033.238106 16712.305292 15373.936457 12504.514241 9785.171580 9583.411562 6765.802587 6069.817978 4501.364485 3554.595002 16705.942098 17433.254857 19338.870491 20810.193502 11144.011227 5593.043580 8232.503183 8224.060949 5147.134053 4802.673156 3972.208697 15979.581591 16528.011254 17226.418713 12576.010187 -484.943170 4856.203726 4682.094955 6223.415683 7211.824163 5152.695023 4676.575514 15007.043497 14876.672499 13832.644614 10380.172891 4297.941823 6478.553638 4836.821287 6825.243972 6467.169943 4809.841945 4128.715719 14158.184581 13888.107837 12994.903629 11012.173295 8162.717508 7421.979203 6625.048589 6529.359009 4781.839782 4979.742870 4385.309226 13527.729792 13496.386746 13379.933253 13278.695172 12814.022963 9183.565635 7360.802423 7795.871660 6575.332889 4809.457524 4535.681789 12985.067388 13215.491435 13847.072264 15453.809988 16341.009010 9853.269964 7327.836690 6481.711816 5991.301898 4755.515400 3524.338713 12401.097742 12668.502990 13214.612669 13946.419499 10145.214799 -1232.062195 3878.304225 5437.776367 4481.648522 5376.000142 3838.943042 11775.643931 11937.595982 12000.820255 11479.128231 9050.635371 3306.798246 3223.798758 4145.049083 5139.258888 5189.842650 4126.102018 11182.027755 11316.016401 11320.358539 10892.223088 9503.154460 6788.048938 6221.614078 4941.588617 3991.054870 4871.098652 3372.318996 10648.977403 10867.204685 11137.997676 11456.686529 11661.732940 10333.292579 6094.460247 5728.150539 4897.567051 4598.451092 3309.190441 10140.382338 10460.516485 11019.506678 12175.863543 14534.713534 16609.604994 6755.055239 5134.016137 4439.431390 3544.239552 2798.325749 9609.168408 9959.468773 10564.204930 11734.680669 13694.124853 11477.035426 -1976.882760 1109.777221 4455.469192 3948.840412 2963.836816 9044.694941 9353.319345 9787.227115 10275.452043 10244.661556 7670.224572 1943.905465 2655.490987 1875.257264 3089.984964 3413.292261 8470.534305 8730.795363 9031.467131 9224.466161 8925.695405 7556.725710 5091.057249 4915.866290 4114.451050 3485.157701 2540.986831 7910.109808 8153.923682 8441.064178 8706.109078 8845.415232 8656.777903 7752.184347 4210.212138 3699.218999 3458.438615 2229.717158 7367.314755 7615.960053 7941.177984 8363.813591 9025.454696 10176.980792 9979.556672 4330.229157 3135.457711 3152.936558 1782.051770 6833.996755 7083.357436 7420.977865 7876.408873 8545.653875 9350.442546 7426.632904 814.820360 3595.380998 2355.427715 2522.055908 6304.825223 6540.087028 6849.270427 7222.516096 7588.310841 7570.324887 5994.443030 2324.339707 2914.412633 2401.660496 2953.123001 5783.061721 5994.566154 6261.280299 6558.472569 6832.360763 7012.091603 6787.463755 4730.567841 4221.940228 2562.820184 2142.552641 5277.129959 5463.097610 5690.997358 5937.545840 6169.586284 6354.544078 6364.766909 5281.710822 1681.613064 2365.142727 2409.140456 4795.764676 4958.718177 5154.601591 5362.676539 5560.600573 5742.655089 5903.285580 5191.783844 3943.694247 2777.171673 2480.270801 4345.659410 4489.862554 4660.520439 4836.230362 4986.529172 5059.102849 4930.689825 4231.690720 3078.644667 2197.066018 2169.351826 3930.889718 4061.430312 4215.161544 4370.970204 4494.998168 4528.614717 4376.290319 3941.562799 3184.557048 2313.954079 2376.064152 3552.846161 3674.673465 3820.389511 3973.250094 4106.843380 4174.572123 4084.277890 3660.148796 3013.723564 3120.900292 1910.007352 3210.521055 3327.020638 3470.866367 3632.917351 3802.802359 3969.167947 4112.545418 4136.176239 3661.014006 3244.336965 2055.391597 2901.400591 3013.370521 3155.987509 3327.114285 3531.662836 3796.009204 4210.546845 4923.100002 5429.611658 2389.261635 1804.440268 2622.812609 2728.701598 2865.663582 3034.161715 3242.653606 3521.895950 3964.545680 4718.870125 4775.891713 1830.668013 1193.005518 2373.125569 2470.460352 2595.788875 2747.612373 2926.513150 3134.127164 3351.849665 3433.555361 2805.959933 1147.205610 1511.171365 2152.223890 2239.227882 2349.128965 2477.104474 2615.264171 2745.275325 2815.277174 2701.753641 2248.166908 1639.197521 1636.383887 1961.192858 2037.611869 2131.768798 2236.844860 2341.979593 2428.010441 2462.223492 2405.135251 2241.217391 1961.043515 1935.682915 1801.646188 1868.637619 1949.193519 2036.235921 2119.954099 2187.244199 2224.426768 2228.910920 2213.472091 2058.915645 1758.408487 1675.224806 1734.812200 1804.754386 1878.769102 1949.026597 2007.153003 2048.164566 2079.607894 2129.884759 2133.869084 2043.601806 1583.769161 1638.103675 1700.033713 1764.887840 1825.968520 1876.504899 1911.696377 1930.297669 1930.564930 1856.371938 1569.356829 18152.616342 25345.347403 22100.024808 17630.640888 16130.164389 20380.749800 14555.877629 13038.470975 12315.830620 3245.864723 2726.983170 3249.886715 -6613.498437 -2576.531435 16452.037533 14426.645527 17667.003304 16294.065534 14024.642498 15497.422462 14941.932004 9820.693910 11015.919453 4714.801083 5309.602633 5211.288072 4672.695668 269.983470 16756.377936 21605.966149 14331.242313 13143.091540 11748.768747 9044.167627 11318.634934 12902.716028 8120.337521 8301.434785 4137.524597 2459.124185 2442.360231 2750.111478 15239.583623 13406.753816 16035.906017 14226.636220 13334.088546 12048.605327 12459.617016 7207.786413 7314.321056 9188.401516 4057.722693 2364.609253 2232.653122 3098.046592 14671.826479 15636.670770 17208.392382 12845.049615 15572.205765 13940.180977 10580.020289 7885.574885 6816.683939 6728.130001 5178.886917 5403.538790 2548.072436 3011.656542 13347.934770 15444.211511 13918.766759 19269.320493 15260.766112 9004.263902 9913.792356 13267.707610 7959.858296 6543.492865 10196.714557 4588.624403 2525.804908 2833.479242 18491.426724 10518.234972 16039.040974 11596.112348 7740.171667 6873.800653 14819.699804 8622.764547 6975.707419 6015.586952 4565.633935 2327.609549 2977.263605 3827.771625 12821.037769 13141.946407 12952.966784 11642.533335 7903.413378 10318.773270 9456.983407 7714.350895 2123.522628 4093.470664 8375.757912 3796.856594 1254.799701 2603.266796 14588.039657 15738.474911 7535.280658 11090.044582 12896.651128 8478.557351 7751.252883 7562.565393 4444.600519 8339.857525 4880.998951 2880.333028 3264.712929 1784.422060 11542.929521 11314.800300 9680.000150 10429.266759 11952.818062 6204.254929 9921.414152 8705.304306 6959.249114 4127.397796 4371.940045 5319.309275 1904.371751 3717.418184 9676.301738 12156.064976 9845.901064 5189.427972 7664.648692 7216.153048 10248.972851 8464.148061 6579.865616 4500.233582 2366.207888 4758.006325 2956.719310 2426.206428 11073.074703 4883.584717 7692.760663 11416.379542 5834.540535 7114.831452 5423.786559 8694.966757 7960.675016 7211.194838 6726.926510 6635.320445 3191.027725 4428.882077 5502.265840 5511.492523 339.610986 5538.400310 5509.247548 4711.000949 10412.002236 8397.059359 8626.239456 7784.272388 5705.944292 3271.586779 7248.991321 5146.472340 1327.442238 1022.668119 -38.987976 4115.358689 4089.402294 1031.772211 4294.481945 2033.816614 1745.764761 4506.156247 3295.942743 3526.291093 5075.948384 7048.383139 3732.741731 2125.387012 4402.858304 2369.944659 -1112.441430 -1564.543843 2594.608103 826.783074 536.372407 1878.519186 3784.151283 1980.141110 -15.359662 4142.371645
</DataArray>
<DataArray type="Float64" Name="Velocity" NumberOfComponents="3" format="ascii">