<VTKFile type="PolyData">
<PolyData>
<Piece NumberOfPoints="1945" NumberOfVerts="1945" NumberOfLines="0" NumberOfStrips="0" NumberOfPolys="0">
<PointData>
<DataArray type="Float64" Name="Pressure" format="ascii">
 12352.931761 12353.827226 11150.964925 12518.470537 11642.161337 12901.132133 14542.291505 16843.377051 15519.759540 17696.032304 16146.662526 18365.666414 16923.981187 19252.809754 17610.070640 19389.774527 19630.348189 21093.972996 21462.672394 23242.241020 22545.871939 24094.753423 22618.275731 24088.233941 24287.584809 25884.815972 25635.339316 26927.902862 25748.379980 26661.673985 25632.409595 26044.864436 25471.605628 25347.058162 26052.638701 25406.683665 26794.370232 25677.990018 27737.669047 26494.057454 28777.558913 27773.250606 29478.927833 28775.727506 29843.617258 29404.230171 30019.834789 29737.882478 30290.247188 30019.829195 30843.197856 30373.112286 31636.847175 30785.559303 32516.010291 31339.849946 33363.510632 32017.540782 34181.380911 32835.737575 34906.337678 33566.722367 35402.444515 33953.085177 35723.396991 34079.832340 36023.434979 34286.797309 36307.145833 34606.673726 36508.513620 34912.542771 36672.166636 35111.721492 36802.593926 35161.041392 36915.418493 35092.899663 37078.214248 35067.617226 37262.680263 35093.120084 37440.553174 35199.938211 37535.992657 35347.109203 37493.496233 35305.185864 37329.326085 35398.427359 36918.379326 34875.710559 36977.061772 35607.254570 36953.516243 34965.563613 39678.883552 37012.585264 47152.036023 45759.587582 49874.915291 51213.255098 40903.850555 35776.216519 32145.805699 28803.576919 30515.408327 30074.853638 31433.430891 33591.765139 31725.663672 35272.663666 29188.165017 31403.448908 25379.468608 25606.296265 23026.397020 23429.422971 21951.292853 23040.877593 21134.804097 22672.543081 19804.970898 21028.080505 18109.091796 18699.821500 16650.688647 17131.926057 15587.143850 16290.862497 14683.677413 15575.063294 13692.641221 14544.695587 12606.362117 13280.453305 11579.455277 12175.795286 10694.732226 11327.362985 9908.637401 10592.118571 9144.777183 9817.163263 8382.294234 8991.551648 7655.623660 8211.515414 6995.641159 7532.715382 6397.957708 6929.688893 5839.779591 6352.431341 5308.459720 5784.459437 4808.531152 5245.753532 4348.226737 4755.903537 3927.498698 4312.330619 3539.270029 3899.797568 3177.384505 3508.867387 2840.645782 3141.473573 2530.485341 2803.072844 2247.148363 2494.710138 1988.721578 2212.797508 1752.746420 1953.494700 1537.822738 1715.635178 1343.720034 1500.160941 1170.457972 1308.035482 1017.450277 1138.898325 883.245252 990.975394 765.749093 861.636570 662.628500 748.016733 571.695933 647.504024 491.198173 558.086801 419.969355 478.534927 357.428562 408.372651 303.444028 347.669730 258.128524 296.758399 221.639563 255.954824 194.225622 224.837700 176.797378 204.106287 170.533571 196.941275 13049.856972 11950.388289 9833.884517 9563.224330 10229.231388 10307.125468 10683.709341 10705.572281 10464.684467 10456.199092 10261.477052 9714.222168 8969.647644 8242.172332 7440.886207 6325.813135 5300.964685 4383.706178 3310.545215 786.903878 -149.893847 1274.835670 -3380.617899 -5741.558623 -4954.628549 -4035.622557 -3312.059859 -2698.848462 -2164.137740 -1695.653284 -1291.989684 -954.896984 -684.036087 -475.070268 -320.185439 -209.680425 -133.606580 -82.949923 -50.246224 -29.732750 -17.207395 -9.750053 -5.414217 -2.949108 -1.576992 -0.828472 -0.427875 -0.217320 -0.108453 -0.052867 -0.024953 15182.418516 14360.790117 10773.703832 12065.274096 13170.750335 12738.067742 13676.490949 12901.196586 12170.373695 12209.698566 11651.328255 10641.489462 9760.670436 9260.561492 8751.483759 7215.221109 6199.536216 4707.041163 4175.292914 -725.677798 -3972.649261 1548.058492 -4024.965694 -6029.643261 -4678.097504 -4005.149611 -3323.565774 -2714.407106 -2178.451915 -1709.314237 -1305.625104 -968.328653 -696.631023 -486.188519 -329.432023 -216.959859 -139.061373 -86.860631 -52.940675 -31.523645 -18.359370 -10.469108 -5.850754 -3.207379 -1.726153 -0.912688 -0.474414 -0.242507 -0.121762 -0.059431 -0.026072 259.346138 343.251630 458.523525 601.528762 766.644255 944.274330 1119.736938 1271.123596 1356.106948 1272.129496 982.197527 793.773861 701.559641 575.170968 454.412121 348.499406 259.515246 187.688771 131.895659 90.121149 59.919628 38.799929 24.490644 15.082340 9.070365 5.331483 3.065539 1.725662 0.951776 0.514718 0.273129 0.142307 0.072850 0.036664 0.018151 0.008845 0.004244 0.002006 0.000935 0.000430 0.000195 0.000087 0.000039 0.000017 0.000007 0.000003 0.000001 0.000001 0.000000 0.000000 0.000000 252.348471 335.137740 446.594131 584.509263 742.902250 911.121416 1071.991277 1198.325926 1248.906622 1182.738492 1017.398812 855.261950 711.438103 577.872609 457.262566 351.697470 262.825916 190.852481 134.719024 92.496125 61.816139 40.245586 25.547263 15.825522 9.574924 5.662988 3.276786 1.856476 1.030630 0.561058 0.299714 0.157215 0.081030 0.041060 0.020468 0.010042 0.004852 0.002310 0.001084 0.000502 0.000229 0.000103 0.000046 0.000020 0.000009 0.000004 0.000002 0.000001 0.000000 0.000000 0.000000 -0.012445 -0.007401 -0.011456 -0.007009 -0.006929 -0.004979 -0.002974 -0.002828 -0.001386 -0.001426 -0.000656 -0.000693 -0.000310 -0.000331 -0.000146 -0.000156 -0.000068 -0.000073 -0.000031 -0.000034 -0.000014 -0.000016 -0.000007 -0.000007 -0.000003 -0.000003 -0.000001 -0.000001 -0.000001 -0.000001 -0.000000 -0.000000 -0.000000 -0.000000 -0.000000 -0.000000 -0.000000 -0.000000 -0.000000 -0.000000 -0.000000 -0.000000 -0.000000 -0.000000 -0.000000 -0.000000 -0.000000 -0.000000 -0.000000 -0.000000 -0.000000 -0.000000 -0.000000 -0.000000 -0.000000 -0.000000 -0.000000 -0.000000 -0.000000 -0.000000 -0.000000 -0.000000 -0.000000 -0.000000 -0.000000 -0.000000 -0.000000 -0.000000 -0.000000 -0.000000 -0.000000 -0.000000 -0.000000 -0.000000 -0.000000 -0.000000 -0.000000 -0.000000 -0.000000 -0.000000 -0.000000 -0.000000 -0.000000 -0.000000 -0.000000 -0.000000 -0.000000 -0.000000 -0.000000 -0.000000 -0.000000 -0.000000 -0.000000 -0.000000 -0.000000 -0.000000 -0.000000 -0.000000 -0.000000 -0.000000 -0.000000 -0.000000 -0.000000 -0.000000 -0.000000 -0.000000 -0.000000 -0.000000 -0.000000 -0.000000 -0.000000 -0.000000 -0.000000 -0.000000 -0.000000 -0.000000 -0.000000 -0.000000 -0.000000 -0.000000 -0.000000 -0.000000 -0.000000 -0.000000 -0.000000 -0.000000 -0.000000 -0.000000 -0.000000 -0.000000 -0.000000 -0.000000 -0.000000 -0.000000 -0.000000 -0.000000 -0.000000 -0.000000 -0.000000 -0.000000 -0.000000 -0.000000 -0.000000 -0.000000 -0.000000 -0.000000 -0.000000 -0.000000 -0.000000 -0.000000 -0.000000 -0.000000 -0.000000 -0.000000 -0.000000 -0.000000 -0.000000 -0.000000 -0.000000 -0.000000 -0.000000 -0.000000 -0.000000 -0.000000 -0.000000 -0.000000 -0.000000 -0.000000 -0.000000 -0.000000 -0.000000 -0.000000 -0.000000 -0.000000 -0.000000 -0.000000 -0.000000 -0.000000 -0.000000 -0.000000 -0.000000 -0.000000 -0.000000 -0.000000 -0.000000 -0.000000 -0.000000 -0.000000 -0.000000 -0.000000 -0.000000 -0.000000 -0.000000 -0.000000 -0.000000 -0.000000 -0.000000 -0.000000 -0.000000 -0.000000 0.000000 0.000000 0.000000 0.000000 0.000000 0.000000 0.000000 0.000000 0.000000 0.000000 13822.458484 14846.353658 14851.706058 13812.550345 13940.529313 15239.076240 14513.286831 13562.295410 13853.877336 13579.939185 13375.478641 18507.911737 16055.288581 15174.383671 14894.505143 12853.211494 12809.426948 13072.982448 12889.382583 12164.435949 12044.749358 11581.194085 17858.127932 16465.138132 17450.971068 16445.734141 16174.642664 14879.500628 14921.900677 13774.046469 13289.893092 12518.088870 11980.940991 17986.079059 19961.291101 16672.666243 16771.274213 15087.663866 15511.638367 14144.439687 13047.652282 12493.514216 11830.619700 11309.753701 19354.996077 20426.990218 20180.488561 17792.010216 17349.755181 16980.852068 15239.754810 14095.518254 13152.823179 12184.092242 11153.093687 19907.594018 21023.265567 19645.281429 19289.273178 18898.370952 17441.833322 15905.013589 14478.057263 13900.160212 12707.995592 12026.208505 23543.560991 22623.469123 22298.566625 20993.980561 19293.297052 17647.690578 16982.620159 16729.786202 15001.214525 13208.815283 11919.899232 24435.499877 23854.503408 22277.401500 21662.719882 20903.595194 20298.853548 18775.905086 15427.997240 14214.518204 14041.198247 13417.721927 26127.901693 24345.342692 23439.120232 22993.632352 21973.590978 19144.054654 17340.930680 17981.878171 17106.188417 14739.350305 12687.207537 25461.751999 24537.512644 24899.687139 23453.234587 20841.889518 20812.374263 20758.586666 18034.190195 14933.584587 15486.793107 15509.914387 25458.057628 24818.164628 24397.089286 22475.900996 22902.103142 22234.849235 18674.101409 18591.034332 20176.928760 18328.731922 14314.546608 25420.284324 25204.874607 24190.595732 23911.571648 23118.983625 20220.019714 21838.416647 22345.970490 16790.940762 19396.778135 20978.231663 25774.721998 25287.138042 24175.856792 24556.915622 23121.856240 23518.619067 24042.567066 19240.692977 22309.129141 22268.778090 21073.792137 26622.203389 26230.259557 24627.404658 25315.340558 24329.733027 24240.041704 22711.799612 24803.350732 21198.697547 21392.568443 22170.358902 27704.901203 26595.815876 25269.328952 26841.984210 24575.022719 24328.195587 25140.768230 24139.766753 19506.004668 22557.269049 18010.103339 28841.537272 26872.800538 26895.538503 27248.879473 24526.381505 27189.239749 23688.679995 25029.232958 21040.473008 19493.908513 5929.401937 29598.333544 27269.633639 28580.424152 26667.388470 26648.147094 27529.120359 23228.240272 27836.274870 17451.894911 17503.366004 -23851.298418 30042.186051 27969.794590 29264.740386 26435.852945 28980.622015 23923.175310 25938.101058 18742.624779 18719.487672 15272.677332 -14641.499468 30429.852551 29034.150662 29160.573134 27549.951355 28486.658000 25191.335634 26192.959130 21997.286969 12698.071211 12813.345684 -16996.585782 30727.082353 29837.863991 28869.357568 29074.072269 26333.811493 28277.529388 21723.908567 24069.238094 16872.077220 9827.426803 -18531.015164 30985.550340 30303.754846 28757.182178 29514.744275 25617.590877 28848.999084 19796.330280 22203.583643 17287.719281 5588.064425 -10506.409741 31095.816845 30625.546073 28957.228790 29070.541781 26118.902450 26462.202129 22384.649082 18660.673041 18126.531745 12694.750611 8850.978341 31188.453972 30827.733316 29263.392921 28502.218134 26592.937431 24961.424142 23164.111570 18128.590926 18424.110503 13507.012741 14718.321801 31589.690685 31306.862317 29613.178348 28282.494550 26601.583859 24218.771761 22282.467867 20724.775091 15809.869340 14127.450188 17465.128138 32210.918856 31993.940812 29938.361846 28407.798072 26351.061708 24075.924446 21058.156956 20793.151410 11848.328530 15633.455497 21521.969980 32812.421585 32635.325842 30213.774884 28605.592829 26212.375345 23710.158072 20544.207666 19714.824174 11962.293377 15090.261353 23357.672428 33260.647982 33089.373943 30509.521475 28614.592120 26142.810267 23091.154427 20600.135979 17843.750070 13597.595459 12201.865123 22693.001991 33433.062596 33304.997136 30749.172302 28403.680635 25882.997277 22425.118950 20152.168492 16193.847981 13942.827986 9429.107926 21841.533176 33325.065151 33302.024039 30856.375281 28001.059431 25392.400436 21731.164210 19327.507539 15058.847721 13026.436656 8053.000103 19256.240266 33169.866506 33130.986118 30836.816373 27541.497961 24805.343710 21044.077703 18432.545452 14170.944438 11817.471172 7295.847922 14657.072263 33324.382525 33034.342243 30764.175822 27190.292609 24650.981628 20534.739747 17643.108459 13493.187801 10546.920861 6523.477058 10330.795309 33827.522311 33193.921754 30831.699538 27101.718354 24465.204614 19941.201483 16975.294966 13038.997969 9586.937398 6117.191442 7113.237020 34501.989283 33521.187126 31090.329583 27319.442911 24283.256582 19907.000365 16715.674251 13010.691171 9157.732119 5900.410514 5371.461389 35165.043335 33985.447177 31523.753770 27804.219805 24655.125688 20576.574481 16978.752646 13428.771085 9181.838604 5924.758064 4650.677090 35732.558936 34483.453272 32062.511500 28448.031414 25300.541733 21378.122466 17561.748060 14045.761206 9446.290447 6115.006168 4514.204577 36072.228117 34889.250259 32573.559495 29088.083749 25983.002126 22261.394366 18066.719157 14379.977600 9862.878260 6369.883910 4649.751040 36234.132723 35099.260135 32925.393657 29585.995332 26544.028060 22956.419351 18448.425914 15030.457715 10526.597293 6589.939904 4827.361806 36279.706249 35186.605440 33122.546061 29839.107893 26783.041379 23336.140624 18658.745379 15373.309333 10420.409795 6496.445385 4802.267703 36228.821836 35131.726612 33270.807050 30056.874087 26958.669581 23575.753803 18716.049531 15387.745525 10340.430284 6634.939785 4755.805867 36259.053594 35061.520112 33123.337008 29868.390445 26799.107671 23572.154833 18746.907608 15419.727647 10296.230271 6602.590864 4774.228864 36349.338157 35201.355589 33373.053772 30026.905736 26765.595476 23439.432396 18521.645731 15403.597212 10352.224104 6538.302710 4779.552939 36016.695552 34637.579175 32755.525248 29742.925917 26854.015562 23632.139032 18566.885848 15261.011540 10452.284852 6606.737832 4740.159572 36382.832392 35210.766276 33176.610032 29547.211191 26171.018783 23365.190704 18804.720583 15262.399972 10356.856460 6745.879061 4752.583790 35395.204761 34388.535399 32609.189133 30211.283600 26824.743196 22891.173601 18734.689736 15496.056287 10338.823823 6649.279733 4838.907298 36318.815849 34908.559246 32160.719142 27780.927775 26837.163873 23048.763560 18293.157645 15416.070716 10524.636575 6618.861639 4773.483621 34877.148857 34010.560542 33476.407509 29569.741895 25539.404908 23407.352927 18140.897743 15185.520214 10381.081029 6716.398561 4646.894967 37946.860809 34208.365507 31018.686617 29694.239948 24688.790426 22857.331035 18181.327744 14911.494632 10350.463357 6519.181789 4673.133337 42608.644454 35277.350909 31577.469293 29483.998054 25467.231916 21662.952991 18489.936036 14298.108963 10491.390056 6200.182515 4649.043510 33537.843444 32146.487014 28993.904819 27917.392938 25446.811510 21196.166484 18187.431981 13872.914121 10480.578057 6182.699399 4364.885001 18554.210479 20743.726514 26084.022714 27110.031975 23540.265513 20736.075526 17889.515437 13203.302359 10270.943246 6224.029032 4067.752247 19959.402587 19209.184009 26228.313372 27320.351697 23210.582311 19798.572741 17947.959998 12706.112529 10130.504925 6068.095131 3855.573600 29836.987664 28158.487413 27072.803516 24444.690085 22872.584832 19743.919172 16958.483171 12500.723205 9729.204661 6079.441801 3596.094195 35391.003070 33328.829544 29442.785011 26175.293720 22246.218655 19461.868272 15828.728401 12875.027635 9011.301350 6011.019896 3428.592457 39914.013193 28963.562190 24118.953030 23552.324049 21302.115565 18639.401927 15394.131500 12410.061805 8606.665864 5731.732706 3391.072472 28332.627545 13326.814848 14171.572654 19371.035182 20673.807610 17280.401315 14966.548084 11749.276838 8092.350813 5535.052882 3197.060073 21876.802159 15104.731928 15327.689456 19175.688523 20102.192555 16735.682490 13850.700150 11487.954435 7506.823498 5545.458642 2866.428269 23710.266880 22202.418209 20241.901268 20340.533750 17966.632353 16119.483390 13427.406437 10782.081132 7134.185688 5107.376468 2830.024094 25098.882236 26492.598950 24824.668690 21464.518589 18493.782225 15163.993308 12954.618346 10075.538170 7246.824681 4485.326831 2872.295940 26428.045657 31381.985826 21103.170585 17066.139844 16567.142974 14751.824302 12161.849004 9538.921273 6763.948765 4387.782066 2685.416957 23165.839766 21350.952443 8806.350519 10387.928365 13887.006084 14309.272950 11325.166138 9303.884785 6261.802272 4172.938956 2564.626296 18607.246674 15711.675794 10302.142983 11194.510856 13882.300322 13669.290884 10963.373633 8571.744960 6181.139694 3687.285510 2623.553268 17784.550024 18288.681570 16389.001177 14814.754859 15205.977466 12210.489268 10741.548679 8329.353452 5962.681254 3514.417604 2424.327152 17734.951526 19745.137826 20421.828289 18228.330787 15367.364602 12786.371894 10152.499609 8124.043218 5654.305897 3715.396501 2104.918076 17723.320147 21653.247937 26246.578650 15974.392273 12625.325997 11915.706937 10288.321827 7685.427940 5448.297546 3301.250319 2181.575793 16444.009642 19222.354234 17844.280392 5907.120523 7853.442200 10154.007630 9955.632444 7387.288847 5582.923564 2958.828058 2201.268451 14457.131989 15154.104863 12771.578245 7474.373868 8323.387076 10514.504525 9519.800904 7188.101388 5100.772763 3194.017743 1935.585315 13259.500430 14425.416468 15043.959264 13133.398253 11803.999177 11977.831702 8869.680626 7255.062910 5022.691692 3250.455761 1852.994993 12617.922429 14426.115398 16618.849080 16975.831481 14337.192640 11620.043885 9257.926240 7123.030613 5096.178569 3064.941423 2087.064254 12084.527075 14554.006044 18592.951264 23008.523563 12991.274736 9776.936494 8812.501558 7585.708497 4910.179563 3217.633047 1966.242034 11263.953929 13525.117366 16636.611066 15682.166405 4092.450534 6251.929200 7915.325369 7253.402231 4745.976643 3570.753802 1691.452878 10217.972645 11753.670497 12815.238134 11279.205666 6039.637919 6467.999444 8312.627774 7144.821591 4709.650772 3191.258698 1860.581497 9309.904153 10681.600852 12090.536179 12877.516578 11059.132588 9543.364453 9591.705535 6694.359732 4771.224924 3141.160471 1887.199253 8632.992584 10161.917749 12134.955809 14337.243394 14602.204082 11435.656127 8905.258458 6842.176395 4772.693468 3298.525189 1700.254209 8059.421721 9762.625817 12354.953886 16281.783806 19977.846182 10555.497926 8142.230439 6563.431051 5271.325814 3086.899536 1840.289126 7447.026670 9091.353129 11486.465488 14588.149124 13821.253466 2973.218814 5094.310137 6093.461520 4817.451688 2813.683121 2034.802332 6781.721094 8184.163675 9848.502043 10969.264358 9601.494943 4827.799395 5063.168423 6484.410492 4939.086309 2918.706699 1812.640960 6150.687625 7386.033473 8823.452511 10124.977801 10709.532345 9056.781364 7444.121293 7219.316924 4548.053750 2841.053153 1750.125866 5607.290294 6805.449733 8350.537041 10169.944736 11971.444409 11959.965211 9031.883728 6553.098863 4559.898099 2903.200601 1873.417506 5129.640853 6328.690190 8022.385749 10466.196255 14069.405071 17344.792206 8470.054028 6403.038104 4308.002154 3453.617219 1751.103398 4671.386552 5815.901054 7445.466040 9755.043349 12836.695152 12560.690437 2189.827706 3989.048472 4508.753610 3045.394501 1689.691980 4215.423284 5243.055688 6616.718477 8202.685835 9353.310568 8405.164835 4178.486113 4009.574399 4827.095255 3174.891069 1836.908301 3778.691395 4687.143628 5850.757545 7102.869450 8069.242659 8275.687443 7129.309426 6071.191108 4877.305120 2973.434801 1804.001234 3380.520916 4204.782220 5279.644297 6541.811896 7865.578234 8926.696152 8619.654898 7119.187560 4316.198341 2896.944133 1854.940028 3022.098595 3786.335140 4825.036107 6183.494753 8047.469077 10711.607285 12432.958353 6904.795068 4322.958696 2623.881215 2146.826583 2692.400021 3394.088903 4365.365142 5673.842769 7521.926989 10182.590195 10708.768196 3306.855762 2613.585169 3230.177186 1953.081211 2383.041837 3008.679498 3861.547179 4950.648187 6234.991242 7381.025563 7290.154000 3626.532367 3361.169372 3485.913395 1673.303674 2094.504990 2639.248387 3361.637843 4228.829273 5134.806023 5848.008548 6078.377193 5443.034366 4778.515844 2985.451429 1757.717963 1831.939429 2303.451075 2917.420067 3637.009468 4389.913259 5071.804264 5554.461612 5473.532666 4441.782942 3011.528047 1748.051253 1599.045230 2010.407907 2543.904304 3172.648565 3858.351678 4572.024041 5295.564703 5641.753572 4942.581327 3015.261026 1656.551549 1395.778301 1759.058446 2232.191664 2796.996174 3430.738510 4116.821098 4833.453877 5217.016278 4593.145441 2651.335535 1784.894089 1219.278106 1543.412286 1968.536105 2481.639226 3063.472187 3683.184540 4259.936133 4512.967377 3892.067131 2843.049855 2019.037009 1065.483783 1356.561115 1741.549000 2211.726358 2752.082524 3332.730489 3870.784619 4145.095615 3751.367122 3209.677720 2132.245783 930.225177 1192.082250 1541.716501 1975.161710 2485.837644 3060.870923 3654.424954 4099.079465 3911.122075 3436.207100 2025.344621 809.860858 1044.519135 1360.532019 1757.882452 2238.292788 2810.953712 3507.809505 4336.997455 4807.526431 3560.286259 1745.847031 701.749517 910.074556 1191.928971 1548.483197 1982.913420 2508.079885 3175.279763 4094.050006 4567.232230 2966.210257 1650.195726 604.529856 787.243493 1034.285075 1345.260652 1717.623777 2143.618586 2593.392113 2948.502389 2735.719334 1737.888745 1901.618788 518.034915 676.640829 890.188919 1156.136843 1466.447232 1800.184454 2106.609323 2291.468529 2264.257299 2137.353879 2109.926177 442.863533 579.990496 763.778096 990.661095 1251.382065 1526.350555 1782.258515 1989.417490 2154.565441 2249.263849 2193.972314 379.885717 499.061363 658.252887 854.045113 1078.695075 1318.667692 1557.257819 1792.490298 2049.602738 2235.754485 2166.409500 329.985293 435.235613 575.273127 747.368063 945.480897 1160.243519 1382.699767 1618.698657 1911.204587 2191.938569 2209.082036 294.372439 389.745754 515.613952 670.343047 848.453821 1041.281625 1238.451760 1430.429628 1604.333466 1662.841465 1352.064202 12755.554082 12161.687227 11652.448013 11047.551287 10446.369231 9863.600328 9222.727909 8361.874251 7248.621461 6098.296168 4537.080701 3124.802082 2037.141264 613.347536 11344.391223 10884.551278 10628.173785 10349.930538 9959.323276 9382.290720 8720.881639 8049.064885 7107.960683 6194.770838 4822.276517 3852.081857 992.027333 1676.367720 11487.409672 11017.068970 10633.994175 10192.303609 9687.400386 9182.314251 8549.186808 7800.974233 6960.310582 6072.708695 4866.296782 3555.844565 2432.844391 1514.810577 10807.048693 10364.764546 9955.393632 9614.609627 9182.932276 8583.975399 7896.444282 7083.730572 6279.731263 5104.830745 4214.649819 3009.504831 1662.742379 1041.589322 10772.298796 10421.999448 9989.698145 9594.825032 9092.649008 8341.702287 7637.623319 6665.717962 5887.191991 5104.851158 3912.302641 2914.907744 1945.924812 1141.844324 11224.561504 10608.481919 10039.514991 9492.945338 8938.168591 8072.949505 7255.032907 6473.260184 5390.489962 4156.868045 3409.523944 2485.349727 1532.521714 934.288922 11393.864502 10870.141750 10273.043948 9809.617985 9183.047772 8454.959552 7587.889051 6378.035502 5508.652769 4581.792045 3480.538308 2545.992131 1676.178370 949.621609 12272.202221 11263.729140 10558.451362 9805.713670 9068.843102 8362.853967 7795.755024 7190.566353 6073.986565 4747.266171 3661.128075 2666.451851 1670.201625 1010.086391 11874.891059 11388.575771 10569.896284 9995.517489 9744.935501 9357.421619 8649.908634 7684.575540 6850.319135 5807.924097 4456.372096 3209.304200 2033.365821 1208.398091 14284.281107 12549.098618 11761.325900 11315.154871 10265.836664 9272.985050 8770.727749 8524.129840 7829.948619 6614.168393 5302.581364 3773.150063 2203.337577 1456.998989 17075.096476 16636.375420 14435.160071 12282.056130 11077.536261 10861.365072 10337.886716 9235.635866 8201.662796 7156.404047 5888.540058 4488.491044 2666.602410 1832.816516 14511.452936 19610.444970 17224.435075 16302.308687 14884.985838 12848.048601 11238.750673 10121.369100 9425.215063 7836.459941 6420.342932 4643.073278 2451.816392 2206.672491 24942.729136 18691.761994 9189.464164 18578.219135 16137.721919 13561.180811 10977.832668 9653.032846 8350.116450 6768.754984 5614.375481 3633.227650 2624.043038 2386.067208 20421.557415 14369.157367 19379.076926 12291.883110 3405.573444 1988.486582 15108.272170 12006.570319 8437.471452 6505.154686 4506.503571 2944.017964 3613.165892 2918.393295 5860.389627 -13779.510428 7820.464769 17069.990058 -692.762778 16021.873569 7379.136001 7139.775138 3430.837076 2561.799649 3742.950856 4399.921685 3966.258057 4394.585413
</DataArray>
<DataArray type="Float64" Name="Velocity" NumberOfComponents="3" format="ascii">