<VTKFile type="PolyData">
<PolyData>
<Piece NumberOfPoints="1945" NumberOfVerts="1945" NumberOfLines="0" NumberOfStrips="0" NumberOfPolys="0">
<PointData>
<DataArray type="Float64" Name="Pressure" format="ascii">
 9614.642528 11010.468491 13312.242928 17475.584538 16503.379453 19533.866726 15366.687270 17829.998956 15894.095684 21062.263133 15707.780069 19284.186755 15128.340734 17520.098532 17257.581456 19141.627877 16519.034509 18565.111946 14911.519210 15494.190217 15841.543150 16800.215037 16780.594432 19073.251013 17519.595512 19148.391724 15757.184350 15961.919950 16494.576521 19727.401521 17165.033607 19239.469857 18441.074501 19522.093425 18554.167096 19265.754475 18156.979107 18910.653064 16902.287165 18020.463279 16659.312855 16587.030393 18346.941214 18983.915494 17526.576906 17028.458035 19842.713614 20893.873212 17836.554906 16234.430283 17950.393587 18349.210915 18647.778244 19228.593224 19524.555200 18646.414988 21050.437269 20852.602671 18860.233361 16839.343139 21752.671644 21789.113715 21183.457146 18600.616102 22162.772721 19144.005558 23618.323565 21406.200678 22630.881509 20339.402308 22840.732733 20362.622996 21975.492836 18130.267943 23199.888439 21640.163353 21546.241508 18613.287342 21855.942174 16685.976376 21769.335875 17851.211737 21111.798795 19042.728447 23384.226252 20774.528339 23459.895434 18703.305768 23624.957074 18532.784348 25131.275204 21333.513067 26463.235113 22098.747894 24949.511807 18481.213675 32495.793517 25201.840256 44263.613032 35587.135712 55444.409777 51569.204867 56698.317341 54905.335966 43107.588632 34570.673128 31934.992204 23922.381194 28492.748453 25696.092758 29072.131886 29826.289784 28839.014100 29667.733879 27608.418026 27437.224890 26761.341711 26274.619607 26661.519314 26935.813944 26395.005515 27578.112665 25121.551761 26131.392496 23186.661226 23437.261611 21499.552478 21487.009622 20397.100285 20642.133122 19612.292649 20107.346538 18817.820779 19263.071854 17965.847706 18219.874464 17176.823376 17344.298057 16499.070308 16695.253819 15867.615698 16103.745053 15203.198101 15411.522415 14496.377437 14630.723512 13792.941619 13876.090889 13127.859003 13204.105971 12498.277967 12585.606408 11885.798371 11975.707135 11282.899018 11366.459786 10694.358375 10776.260526 10123.316612 10213.574394 9564.200918 9665.984360 9008.124222 9116.036890 8450.985725 8557.886071 7895.313950 7998.235144 7346.233059 7446.218640 6807.382255 6905.885086 6280.351796 6376.866007 5766.580709 5858.978845 5268.999547 5355.094968 4792.087567 4870.704961 4340.797795 4411.911687 3919.351050 3983.720728 3530.489182 3589.220531 3175.282217 3229.462843 2853.374964 2903.804506 2563.520517 2610.578376 2304.221031 2347.914679 2074.273580 2114.437869 1873.063587 1909.602699 1700.566097 1733.626161 1557.133606 1587.163897 1443.201253 1470.897088 1359.232608 1384.609198 1306.299677 1329.110744 1284.785445 1307.124506 11683.327807 10704.858986 9468.883176 9596.215068 8356.869872 5615.751930 5141.181993 4382.206216 1644.379474 -702.503247 767.224382 1902.069478 -4007.477042 -4834.651728 -2752.328258 -3128.485348 -6863.919083 -7446.541818 -6198.043557 -6640.376905 -10241.299953 -10814.610615 -9584.431153 -8592.156408 -7634.197235 -6698.411503 -5809.324447 -4986.640227 -4240.981749 -3576.014594 -2990.736012 -2481.275275 -2042.166340 -1667.179085 -1349.829490 -1083.680677 -862.519748 -680.465726 -532.039687 -412.211880 -316.431442 -240.640448 -181.273069 -135.241108 -99.907929 -73.053413 -52.832791 -37.732524 -26.528318 -18.264696 -12.376886 19141.765883 17017.857917 13350.974273 15434.383025 12794.205804 7556.414413 7379.757825 7146.311673 2652.659517 -4685.408308 -2055.308369 3317.011439 -5343.795104 -5526.531834 -2036.222776 -572.480806 -4957.794775 -7006.331213 -5438.913693 -7154.975989 -11935.020219 -11742.890349 -9587.628591 -8590.681173 -7639.895239 -6709.759569 -5824.610721 -5003.957234 -4258.851026 -3593.450951 -3007.152598 -2496.366578 -2055.808111 -1679.355030 -1360.583295 -1093.087593 -870.671207 -687.461534 -537.983987 -417.210614 -320.590251 -244.062623 -184.057580 -137.480836 -101.688240 -74.451124 -53.915389 -38.556598 -27.130659 -18.603084 -11.961149 1369.523773 1423.358579 1489.487662 1560.116645 1627.981328 1685.492945 1725.035397 1738.308903 1708.103317 1568.992947 1258.398672 1072.033660 980.797026 849.046846 724.358036 613.848995 516.761134 432.048839 358.605655 295.353932 241.271883 195.396755 156.820392 124.684828 98.180764 76.549186 59.085081 45.141896 34.135446 25.546392 18.920786 13.868613 10.060489 7.222930 5.132614 3.610130 2.513616 1.732621 1.182433 0.799024 0.534685 0.354353 0.232605 0.151248 0.097427 0.062170 0.039290 0.024567 0.015147 0.009102 0.005058 1348.166768 1401.759714 1465.034766 1532.320920 1596.475081 1649.578425 1682.541188 1683.016522 1631.592669 1505.838203 1315.806587 1145.343292 993.334849 852.316252 727.206363 616.490006 519.203515 434.284066 360.635468 297.186389 242.916963 196.864287 158.119626 125.824782 99.170768 77.399300 59.806283 45.746015 34.634915 25.953881 19.248809 14.129149 10.264682 7.380861 5.253178 3.700990 2.581226 1.782306 1.218499 0.824891 0.553018 0.367196 0.241500 0.157339 0.101552 0.064933 0.041120 0.025765 0.015925 0.009637 0.005675 -8.798740 -7.237592 -8.069924 -6.689296 -6.017368 -5.353060 -3.907886 -3.854730 -2.617876 -2.642287 -1.753408 -1.780892 -1.167135 -1.187944 -0.770930 -0.785573 -0.505182 -0.515248 -0.328420 -0.335252 -0.211835 -0.216427 -0.135581 -0.138639 -0.086117 -0.088135 -0.054289 -0.055609 -0.033972 -0.034828 -0.021104 -0.021654 -0.013016 -0.013367 -0.007972 -0.008194 -0.004848 -0.004988 -0.002929 -0.003016 -0.001757 -0.001811 -0.001047 -0.001080 -0.000620 -0.000640 -0.000365 -0.000377 -0.000213 -0.000221 -0.000124 -0.000128 -0.000072 -0.000074 -0.000041 -0.000043 -0.000023 -0.000024 -0.000013 -0.000014 -0.000008 -0.000008 -0.000004 -0.000004 -0.000002 -0.000002 -0.000001 -0.000001 -0.000001 -0.000001 -0.000000 -0.000000 -0.000000 -0.000000 -0.000000 -0.000000 -0.000000 -0.000000 -0.000000 -0.000000 -0.000000 -0.000000 -0.000000 -0.000000 -0.000000 -0.000000 -0.000000 -0.000000 -0.000000 -0.000000 -0.000000 -0.000000 -0.000000 -0.000000 -0.000000 -0.000000 -0.000000 -0.000000 -0.000000 -0.000000 -0.000000 -0.000000 -0.000000 -0.000000 -0.000000 -0.000000 -0.000000 -0.000000 -0.000000 -0.000000 -0.000000 -0.000000 -0.000000 -0.000000 -0.000000 -0.000000 -0.000000 -0.000000 -0.000000 -0.000000 -0.000000 -0.000000 -0.000000 -0.000000 -0.000000 -0.000000 -0.000000 -0.000000 -0.000000 -0.000000 -0.000000 -0.000000 -0.000000 -0.000000 -0.000000 -0.000000 -0.000000 -0.000000 -0.000000 -0.000000 -0.000000 -0.000000 -0.000000 -0.000000 -0.000000 -0.000000 -0.000000 -0.000000 -0.000000 -0.000000 -0.000000 -0.000000 -0.000000 -0.000000 -0.000000 -0.000000 -0.000000 -0.000000 -0.000000 -0.000000 -0.000000 -0.000000 -0.000000 -0.000000 0.000000 0.000000 0.000000 0.000000 0.000000 0.000000 0.000000 0.000000 0.000000 0.000000 0.000000 0.000000 0.000000 0.000000 0.000000 0.000000 0.000000 0.000000 0.000001 0.000001 0.000002 0.000002 0.000004 0.000004 0.000008 0.000008 0.000016 0.000016 0.000032 0.000033 0.000065 0.000067 0.000129 0.000133 0.000251 0.000258 0.000484 0.000491 0.000930 0.000904 0.001873 0.001532 0.002966 0.002213 0.003506 0.002647 17425.253123 21127.729995 16671.657548 17393.835387 16182.475338 14485.356369 17108.342231 15155.670045 14384.428895 11466.817292 10408.488774 19719.115138 14081.119133 18589.357428 15658.683629 11455.578993 13247.925580 13717.648834 9787.439644 9852.769422 15276.011891 13261.931556 16389.052239 17305.292918 18071.917991 18168.112841 13397.232020 15139.369005 10992.506634 14209.269950 9841.082431 9218.365632 13669.960309 18997.786644 16887.893797 17384.269009 16480.006222 13858.937675 15592.617537 14462.442848 11842.120947 14567.806609 13262.718829 12104.422336 18405.036173 13224.085355 18653.482186 18084.766458 15626.569721 13413.014682 17532.695427 12191.595404 13525.204227 10104.047119 10967.705666 16620.967333 17565.091473 16340.280884 18805.951779 17359.606524 13708.362207 17057.896967 14404.322660 13754.436402 7059.218935 15889.920683 16970.695595 16138.164471 18590.618166 15524.862673 15446.241145 12091.911114 15110.192215 13650.028963 14238.933280 15101.802409 11208.247581 17137.797143 16907.954311 16788.916860 16723.223027 18598.382826 16497.634489 13403.936224 13255.746158 11967.872782 10616.325603 9303.433309 20127.672952 19056.022922 16557.080913 16929.123825 15439.040909 14321.572273 15956.898591 15142.657834 13364.510385 10409.024530 9222.103195 18138.275348 16787.099434 17472.236848 17507.265754 14276.185966 15925.131035 13195.054331 14240.061937 10835.481792 9080.264243 10760.826228 16654.306472 16798.701691 16684.065129 14218.607203 18225.100728 13780.049773 14018.241750 10779.343907 12504.031035 10561.491568 10075.700926 18639.047149 15941.943117 15218.930285 16554.617348 15547.396633 12939.147409 10601.955379 10909.505693 11908.799702 13476.039535 8294.479502 18084.889264 15167.455845 17342.827649 15098.105798 16160.446803 14586.060711 14526.054515 10966.655159 10317.641464 8887.363340 8789.471788 18149.411930 17772.667057 15387.127674 15902.649655 15444.954578 12897.149270 11698.116622 10643.216571 12352.163877 6428.277142 4281.497855 19359.424600 17116.662761 17426.633996 15442.206600 14319.643503 13968.602776 10781.687572 10809.862402 4882.168538 5943.843037 2342.128392 18773.242812 18575.152058 14878.552035 13413.156335 11986.214382 10642.888137 10809.295980 8658.933370 1806.133877 -210.215980 -7016.947101 17490.374597 16776.556658 15232.317203 14388.004982 12303.217665 11632.081953 7102.871901 9398.543575 -2454.709565 1132.179253 683.833923 19614.577821 16074.442480 14292.076245 12210.876229 10327.539014 7374.683580 7329.924657 3959.639969 2538.324676 -2965.294748 117.278496 16739.463604 16385.164030 16171.687358 13107.404881 12189.040511 11625.052314 5676.654758 5708.183678 2577.854937 -111.415074 3284.794299 17186.087907 17852.737981 14068.211171 13942.995920 11233.564268 9907.917907 6192.206569 2813.681032 -1854.258858 5659.909381 2861.297822 19962.796214 15973.098206 16035.405736 11998.956659 11964.029740 10780.456450 6644.336982 3215.273076 -583.939263 2251.584448 1266.311179 18163.036219 15491.570596 15181.409948 11438.488694 13534.525780 7722.679065 3505.691099 4942.940047 5205.870041 3052.675726 1803.720000 19569.600124 16584.694393 14273.454903 12379.241567 11327.662969 8526.958759 8367.495251 4697.836206 3809.441905 4925.145158 1606.854852 17830.683594 15879.990154 15831.899201 12192.268942 9378.671348 11557.718235 10164.715543 3011.774820 5171.029660 2545.413127 3920.682464 18001.903332 16562.038967 15354.981275 12029.073817 12377.288930 9818.841242 6848.091642 3495.069354 2326.685125 6381.847852 -302.830821 19628.702277 15224.905611 15002.003258 13426.635796 13660.468901 8004.127049 8002.866398 9579.815833 8050.595431 -1526.109875 -9497.646280 17403.765364 15973.287185 14578.874924 12638.057025 11581.803227 9987.870311 11702.274087 4706.649713 3607.004393 4344.300191 5146.525876 19463.603224 17039.585603 14116.544324 11756.886995 14117.040337 12953.413374 9446.782215 6945.532506 4003.855594 6305.394801 7648.497689 19644.328583 17519.891090 14226.579205 15485.427871 12502.583402 10662.310320 9753.996138 7916.251449 8040.405613 4493.818654 7330.711963 18048.771727 18040.260159 13596.735866 13734.755550 11863.409793 11130.247289 11285.248995 7875.811206 6701.932638 2765.180826 943.846474 20178.389029 15618.595123 15104.147700 14706.483011 12558.747522 12397.728214 12260.529983 5357.589955 5182.984961 265.081759 8030.630251 19210.621992 17421.031892 14332.821159 13408.584252 12680.145203 12219.378274 10998.854458 10004.138646 1673.862947 8080.902537 14199.629784 19581.993987 16886.737692 17525.919643 14227.178587 11957.059083 11413.742645 10138.577845 10122.054098 6831.661855 11165.858248 11718.055916 18712.237900 16141.813920 14290.478881 13461.806452 12288.859878 11890.694123 11039.807654 9562.089354 8786.601275 7171.975358 -4794.603082 19972.455824 17619.118129 16132.954064 13641.840163 11254.729327 12042.604243 11112.697704 11477.368197 8344.166177 6631.090684 -69.682260 21046.173055 16669.866172 17467.539156 15002.124001 11627.930834 11545.728481 11317.721739 10857.483301 9551.827756 8764.755379 1906.652657 19441.834686 17101.005322 17978.653554 16175.880724 11784.532300 12098.569721 9324.915939 12561.999826 9999.352913 7750.803158 4030.062868 20054.731155 21973.136255 17865.004216 13817.133849 13057.219965 13987.668091 11009.236454 11953.106107 9181.466823 2522.112958 7473.325942 17297.204027 17810.009197 17655.932801 15831.440790 11757.866907 12801.780205 13475.438507 9157.405240 11260.002684 2179.278055 5033.767977 19318.662907 19424.871905 18962.420488 18654.428528 14616.119742 14543.382372 8463.313809 8746.045259 8511.240519 2147.418881 7945.470193 19816.167341 18600.591576 18107.048750 14859.652031 13660.993873 12457.450590 12857.780278 10433.196178 8300.441864 10360.672920 7172.755708 21686.505550 18711.552542 18459.631942 18670.040270 15299.227254 10621.830239 10820.941827 9347.984725 10080.734098 7479.070173 1806.925801 22118.731623 20126.493305 19834.852603 16855.927544 15624.340808 13710.600741 11717.973003 9550.540829 7259.542594 1641.553694 10753.675539 23488.854945 21065.331079 17722.630901 15281.359757 15080.431671 13070.300779 12401.804767 9291.344308 8842.862588 11952.547236 10181.898838 23679.215529 18952.681544 18994.878603 13005.074190 17644.120155 13539.402292 11492.655010 11797.475184 11651.207723 7805.255325 4305.019675 29173.007527 14820.015929 19347.928905 16367.609684 14338.760420 13420.098244 12172.552249 12162.084885 11487.018218 5351.001887 6417.169853 23284.191610 22646.207575 17725.950297 15838.808509 13639.159700 13832.908953 14677.482479 11435.151914 11824.245367 9953.072666 11495.297296 10169.568278 16926.602498 6663.876534 15423.674690 17720.096496 13336.942713 10813.672745 11484.136654 8940.147367 8848.837967 1814.786572 11653.267427 5680.903421 14581.858249 15425.065792 15565.100338 15136.240325 9118.413320 11667.371809 6491.999264 4641.580982 -53.699192 8406.339350 7001.260125 4529.556702 21876.832174 14538.679779 12964.644301 9621.638867 9923.780152 8089.135011 4288.548418 8684.183843 8041.432342 -9206.001356 896.321455 16956.524833 18643.271876 11671.818337 13447.464732 10944.463042 6315.284914 8585.795078 3493.227326 8544.132967 11270.410280 20131.293075 14754.712840 16273.959169 11536.205096 12043.086370 4989.267840 7504.155596 7878.523237 2036.396913 16434.922751 12808.438899 11805.786907 13791.761099 12151.404044 15342.714462 11250.986857 9133.912622 8423.844013 6795.360937 900.952504 29741.913003 19559.897142 4436.337444 13326.435725 13920.156776 15841.926529 11314.856488 10810.757602 8256.285276 5178.221837 2823.097790 24987.819601 6422.133918 5380.635925 7573.562041 13578.567219 16077.526316 10736.333198 10369.920698 4213.825309 7150.349243 4002.843355 23011.122677 8752.173642 11081.181870 10835.410008 15464.049860 15146.961480 11103.761282 9501.063260 5604.139866 7419.663605 -2783.158487 23105.072093 13604.486644 18202.526586 16179.475710 15420.682429 13579.437768 10663.244808 10622.682594 5607.778275 7154.815338 1835.731618 25795.004872 22446.178845 18683.320843 17694.757402 17705.276141 14186.493363 13522.766801 9641.765849 7825.606820 7052.889915 5862.019911 30049.428514 34924.052630 23044.060509 6098.977267 15021.248376 12013.961610 11222.571162 9638.061690 5931.247070 6429.345232 -2166.962576 27790.739311 24169.731629 -2932.027364 -88.431230 3557.073157 10068.832700 11626.698841 9539.769997 4495.826919 6154.899739 6945.020482 22201.890260 18099.031601 6285.383962 8049.403081 3919.023471 11469.664372 10616.573881 9046.909374 5374.088293 4397.415248 5336.852591 20467.990241 17802.774406 14564.616689 15005.265938 11156.310377 11083.365678 11457.949811 8275.858733 6701.682587 4764.533072 3244.846289 20946.434491 20773.864218 17725.557222 16842.533936 12596.198124 13331.075299 9409.031528 9246.565572 4803.013203 5309.568589 5712.136425 21371.230481 24258.534852 27291.956443 15150.526039 5460.540451 12162.876285 9277.353143 7050.252908 5073.378947 4106.941841 5484.737492 20229.242540 21758.199159 17533.286018 -4262.586224 4682.751416 3846.991346 9392.121414 9642.149184 5503.395282 4448.435463 2160.026507 18522.004493 18173.173733 15525.049773 7059.474875 7251.198454 4093.827971 8801.637125 8300.571615 6338.785698 3172.276343 5230.966801 17553.977510 17463.525958 16259.759613 10616.721319 11323.841321 7483.538870 7345.740161 7548.597064 5524.220088 3690.652204 4445.328200 17110.764205 17648.134810 17796.778749 15850.667668 12559.278527 10203.207513 10837.911714 6722.817299 6697.634246 3466.420157 3597.345696 16715.193119 18009.855189 20931.933497 24454.531540 11458.455320 5774.554314 8297.124700 8832.995957 5490.984803 3778.054525 3606.237875 15932.213579 16906.102774 18744.323131 16268.656503 -3388.206182 4239.117121 4727.038018 6741.517477 6671.237990 4209.216350 2628.837306 14897.844389 15083.952659 14592.056318 11545.714445 3151.384160 6065.867529 3265.154677 7784.737279 5809.214151 4291.686240 2836.720356 14009.661810 13995.225384 13478.117974 11829.098454 8005.006617 7657.848018 6389.049550 6131.703284 4701.972334 3951.043282 3530.649672 13355.805726 13532.138536 13730.326450 13940.046009 13662.833087 9808.370789 7677.456413 8090.537032 6119.851950 3804.706519 3433.630874 12790.146708 13166.792983 14015.133483 16215.436343 19806.345814 10177.507707 7865.773695 7051.862989 6031.542973 4320.652179 2840.375361 12181.113172 12531.911058 13164.300698 14455.452573 12445.823937 -3916.996931 4292.432496 4766.182511 5039.234496 5102.090463 3488.850414 11537.236808 11746.838866 11849.825936 11414.359670 9199.713128 2915.599745 2914.336481 3179.926202 5907.010638 4759.625343 3989.437154 10934.862739 11105.016429 11156.251014 10806.080212 9708.923009 6829.541402 6666.086636 4500.546949 3550.929411 4419.951282 3072.195916 10396.989527 10641.933937 10935.293785 11262.776868 11526.392372 10855.244077 6593.823958 6262.802723 4528.134632 4668.387286 3100.072993 9882.998752 10216.091606 10747.715998 11749.261782 13931.652137 17041.259957 7468.286500 5937.618085 5185.899242 3759.721736 2417.270679 9346.693617 9700.290146 10244.920501 11165.386442 13150.286593 12425.768215 -4198.267362 1709.819530 4197.611410 3288.136916 2553.335216 8780.034766 9094.457808 9486.441539 9833.193740 9796.852031 8181.387013 1219.119138 2508.463682 2570.717415 3426.304824 3597.301777 8206.674079 8482.967065 8779.460937 8941.294198 8683.398803 7654.073269 5004.607058 5223.619821 3890.806887 3296.168618 2256.783097 7648.358184 7918.502038 8231.249593 8525.060056 8731.392409 8765.928663 8222.795037 4878.810145 3973.011622 3493.808845 2184.485478 7107.917957 7390.190989 7759.883005 8243.443215 8990.014432 10442.592042 11666.524829 5556.567873 3117.374597 3291.962014 1596.453626 6577.118246 6864.174406 7256.943727 7793.965852 8588.178817 10010.847428 9614.066451 -359.206644 3129.480938 2472.089449 2795.790220 6050.802582 6324.532201 6691.317514 7150.447511 7650.174966 7952.810798 7137.742304 1840.422037 2477.815375 1970.110454 3334.776084 5532.472129 5780.313881 6099.940049 6470.646614 6840.586470 7177.518113 7331.891262 4724.092522 4886.105390 2716.494769 2874.821450 5030.999209 5249.721132 5523.505959 5830.043565 6135.946246 6412.709044 6742.344981 6088.878182 1665.569811 1927.274364 2200.273017 4555.546671 4747.630581 4983.436382 5242.961449 5505.989470 5775.087884 6248.360906 5975.652769 4500.752418 2899.711779 2342.778402 4112.872137 4283.072737 4489.172341 4710.818663 4920.227089 5070.034826 5073.119031 4480.323708 2943.834616 1495.111471 2245.319023 3706.732013 3860.530450 4045.960953 4242.960318 4419.901059 4522.008852 4472.217660 4233.670968 3379.229638 2214.312288 2377.177233 3338.038542 3480.561714 3654.385783 3843.432223 4022.409159 4146.333416 4125.008569 3754.360252 2952.447456 3263.635633 1814.975398 3005.352487 3140.082460 3308.476050 3501.494982 3708.506934 3916.659731 4102.040679 4143.509405 3567.325578 3139.865661 1816.390739 2705.850177 2833.745418 2997.602579 3195.016644 3430.001117 3726.611695 4169.705524 4956.127629 5899.007999 2456.857865 1658.363249 2436.640445 2556.414869 2711.804747 2902.992641 3137.877568 3446.444875 3921.075877 4884.637263 5741.360185 1863.757171 886.088555 2195.900060 2305.394988 2446.874131 2618.739646 2821.675735 3058.382219 3314.464101 3500.959816 3098.091777 851.110833 1340.785745 1983.311655 2081.042201 2205.219955 2351.041257 2510.992271 2668.152714 2774.495096 2713.362526 2333.395391 1567.673651 1627.274385 1799.751756 1885.704744 1992.529894 2113.380533 2237.558675 2346.421429 2407.979800 2381.396131 2268.191894 1984.372650 1897.442028 1646.641752 1722.181281 1814.017429 1914.904966 2014.833777 2100.313395 2156.406368 2176.377412 2183.886548 2099.606834 1678.393860 1525.467602 1592.816308 1672.897597 1759.138938 1843.280710 1916.221184 1971.538601 2013.982504 2083.562473 2179.327763 2158.751927 1437.968540 1499.478610 1570.685140 1646.575698 1719.961890 1783.435243 1831.505560 1863.098232 1887.228855 1872.066498 1624.471913 7555.399262 14290.451068 10573.334611 13120.289864 8975.704078 7132.822628 5438.061966 4909.418484 3195.967021 4042.839424 1467.257699 1869.900739 -6931.112407 -9306.558965 10452.580967 3832.700059 8331.713077 9041.739295 8622.618176 7079.442042 10066.019153 5326.399563 6089.535518 1733.890224 1276.068121 2627.851340 1049.145742 1604.300033 5991.329601 10894.989792 10749.105580 6828.473684 8637.398629 8372.870239 6932.023582 4766.941677 7198.246591 3889.779203 1946.940081 1533.720359 1315.847144 1472.648479 9815.625977 8078.618632 9702.918208 11241.665579 8482.087396 5471.165656 5516.262337 5664.380650 4322.524636 2928.818271 3126.923558 642.603942 1025.236155 1672.208859 9898.717308 9840.377324 11598.278713 6042.614036 9604.527931 8562.801322 5419.758616 8358.594812 7504.792572 1689.578780 1297.005394 3031.685312 1828.621000 1234.439364 7469.105024 10202.461028 8564.055882 14860.227272 8815.642640 8412.204300 7150.971698 6041.762755 6177.603039 4372.293734 2127.175893 3162.342347 2288.187148 941.470406 11396.621415 9321.044802 8990.776832 8851.151765 7331.866428 5843.456703 8768.825358 3651.153292 5608.894233 4016.945216 2622.164479 2379.301478 1693.530088 1059.067816 9712.191149 11201.373481 9196.623889 5528.667249 6326.897752 8393.090847 7895.016434 6327.051148 3302.082426 1158.556195 2241.057909 683.773289 2451.432522 2376.186465 11345.947915 11614.339924 6429.850454 5540.015998 9338.955105 5173.519775 7423.526529 3750.782469 5893.415488 2031.588233 307.612197 3537.928376 1612.929764 2036.881640 8715.738719 6687.432191 6588.338627 7209.053904 7231.665517 4324.360684 8057.639172 7323.538313 3403.416911 3969.085504 2314.598590 1968.528265 2164.654134 -63.588032 8887.037860 8337.666431 8978.036101 4920.174450 4002.608609 5804.113203 6592.247361 4957.750254 2323.154113 2606.469899 3150.692669 2619.658331 762.030650 841.278259 9176.613370 4595.246041 6187.119201 8374.878588 2549.987293 5883.313601 2373.996854 5381.236404 4986.375843 3012.790235 4921.918978 3115.175472 1802.784486 1167.978067 4774.815864 5843.445554 633.712188 4887.251301 5594.386860 4377.189067 5373.717840 6098.002964 7967.269490 5457.832295 370.814893 3795.844362 2402.776026 2088.221368 2394.619893 2437.699598 -2563.707500 -455.719539 1558.824381 2923.377697 1173.809782 2004.598614 1295.454365 1808.470830 4457.807450 3189.587232 2317.354020 5074.006448 1214.653189 4616.261124 -1782.959704 -3437.950123 3905.705194 -1388.070396 -2259.431673 11.840747 -1034.195409 850.794806 2040.110350 793.553136 1137.180981 1182.785148
</DataArray>
<DataArray type="Float64" Name="Velocity" NumberOfComponents="3" format="ascii">