<VTKFile type="PolyData">
<PolyData>
<Piece NumberOfPoints="1945" NumberOfVerts="1945" NumberOfLines="0" NumberOfStrips="0" NumberOfPolys="0">
<PointData>
<DataArray type="Float64" Name="Pressure" format="ascii">
 10708.226150 11152.533137 11737.050832 14400.344309 13291.561504 15110.076826 13597.779983 14656.271009 12933.838884 15608.939235 11770.960560 12216.831884 14200.498052 16265.492668 14207.644052 17097.949027 12879.058594 14151.954089 14493.855430 18918.315475 13922.112117 16278.038257 14203.915595 18075.538394 13257.877220 15775.840675 13840.476538 15426.466058 15822.395410 16946.518481 18469.472109 20686.996391 18710.927620 20517.949872 16505.158858 16476.703072 17348.716769 17687.816902 17138.348963 18925.406334 16814.509575 17651.401587 17319.582487 18643.603776 18638.720841 19023.890112 21115.645874 21065.377399 21002.970720 20672.982648 21432.802290 21016.714613 23988.805729 23319.429221 25719.614042 24823.624147 24859.458480 22886.689095 26304.065593 23666.686649 29350.327280 27848.492154 27217.577363 25418.262137 27175.456734 25563.290627 27667.708154 26202.196572 27514.861332 25296.261616 29638.409387 27141.416690 31301.452162 27166.376461 33707.876014 31044.603737 31830.542562 28875.460470 31457.435517 29399.983111 28986.311888 27122.659063 31799.982177 29994.239216 33324.861590 31124.292834 33859.495208 30257.787315 36317.555226 32911.182564 34845.322858 29329.316033 42834.319843 38813.760540 42538.113647 39299.660927 42257.365458 36041.054991 51443.876510 44958.107950 62189.493938 63777.995676 56969.425391 48491.153349 42651.391666 29415.741406 37085.750227 30938.503670 38868.503963 43589.976416 40405.408821 46503.553216 39299.315110 41933.609430 37126.350649 38975.483322 34974.516903 36427.034758 33504.489955 35065.087370 32276.606484 34777.606345 30091.359067 32153.476172 27198.484157 27955.864270 24732.327250 24872.823544 23160.479495 23518.992529 22120.156229 22805.005908 21119.935167 21777.417812 20025.845903 20458.237179 18965.462766 19268.242179 18026.239986 18331.933189 17170.047854 17500.716183 16325.589827 16614.426458 15481.319503 15681.012499 14678.383722 14809.672300 13948.506743 14058.769568 13284.958474 13398.897866 12661.918996 12774.718823 12062.541491 12164.407403 11484.146245 11578.514299 10925.102885 11022.666269 10375.954751 10480.590568 9824.272982 9929.695547 9264.117568 9361.688645 8698.714445 8784.988187 8135.510117 8212.437360 7580.505623 7651.233757 7036.728258 7102.630359 6506.013970 6566.730712 5990.972765 6045.807471 5495.465639 5544.326238 5023.905232 5067.423541 4580.292392 4619.553209 4167.527016 4203.748687 3787.125547 3821.371804 3439.328884 3472.272762 3123.530044 3155.342468 2838.866410 2869.294458 2584.753226 2613.356857 2361.169576 2387.592685 2168.642038 2192.794453 2008.009182 2030.119934 1880.109138 1900.657735 1785.704628 1804.545494 1726.024531 1742.758703 1701.322476 1717.741672 10813.791347 8171.619773 6358.350901 5599.790854 3884.651155 2417.010572 3743.256119 1956.432809 -1522.161742 383.404072 2437.752658 -1850.639907 -3406.773495 -1517.101822 33.613541 -2350.688435 -5506.967664 -4930.871445 -3845.248427 -6401.187751 -9363.061741 -9634.232150 -9145.244269 -8502.110615 -7784.392150 -7028.402066 -6267.940369 -5528.562799 -4827.684941 -4176.372958 -3581.028685 -3044.594597 -2567.413502 -2147.891335 -1783.041831 -1468.943134 -1201.115068 -974.820727 -785.297558 -627.926003 -498.345559 -392.528511 -306.820782 -237.958005 -183.063385 -139.632564 -105.509679 -78.858697 -58.138508 -42.121102 -30.210348 15017.387519 10051.305995 8344.748099 7602.920536 6358.449780 3138.077808 5288.073795 -713.182849 -5487.508001 37.931408 3203.669710 -2984.349373 -4202.590648 -1170.866096 907.164162 -1939.094282 -5894.962394 -4638.732112 -2651.368102 -4840.683439 -9028.141295 -9349.853748 -9006.286170 -8464.049819 -7772.517201 -7027.339872 -6273.022024 -5537.444806 -4838.836338 -4188.733151 -3593.847380 -3057.334496 -2579.692143 -2159.445524 -1793.703150 -1478.618457 -1209.769736 -982.463813 -791.969304 -633.687504 -503.270624 -396.697446 -310.315793 -240.859874 -185.449130 -141.573785 -107.071052 -80.094236 -59.071193 -42.614051 -29.166656 1770.406949 1804.948470 1845.457642 1884.556235 1914.768561 1927.189646 1911.076607 1852.820320 1727.632433 1467.830632 1085.200615 972.128586 971.816677 886.765600 788.205637 690.699027 598.158369 512.782011 435.649016 367.082114 306.916432 254.694770 209.800929 171.546091 139.222602 112.136503 89.626771 71.076424 55.918640 43.639734 33.780017 25.933132 19.744217 14.907143 11.161048 8.286370 6.100579 4.453778 3.224369 2.314895 1.648172 1.163790 0.815009 0.566073 0.389935 0.266348 0.180313 0.120821 0.079843 0.051479 0.031003 1746.192574 1780.876099 1819.215364 1855.761667 1883.053062 1891.759628 1869.980755 1802.005266 1669.003869 1464.341813 1235.043042 1089.114147 986.736847 887.458057 788.517131 691.518501 599.423009 514.307709 437.281051 368.712918 308.478229 256.148576 211.127078 172.737265 140.279121 113.063300 90.431507 71.768319 56.507736 44.136409 34.194639 26.275802 20.024563 15.134165 11.343008 8.430718 6.213914 4.541855 3.292121 2.366485 1.687063 1.192816 0.836458 0.581769 0.401307 0.274505 0.186104 0.124888 0.082691 0.053667 0.034100 -22.715464 -19.409539 -20.989024 -18.036124 -16.279697 -14.823994 -11.275548 -11.152539 -8.007452 -8.060680 -5.682549 -5.746409 -4.010255 -4.061340 -2.811117 -2.849210 -1.956899 -1.984712 -1.352809 -1.372894 -0.928753 -0.943132 -0.633262 -0.643472 -0.428857 -0.436050 -0.288479 -0.293507 -0.192761 -0.196249 -0.127954 -0.130355 -0.084382 -0.086023 -0.055289 -0.056402 -0.035996 -0.036745 -0.023287 -0.023788 -0.014972 -0.015304 -0.009566 -0.009785 -0.006075 -0.006219 -0.003835 -0.003928 -0.002407 -0.002467 -0.001501 -0.001540 -0.000931 -0.000956 -0.000574 -0.000590 -0.000352 -0.000362 -0.000215 -0.000221 -0.000130 -0.000134 -0.000079 -0.000081 -0.000047 -0.000049 -0.000028 -0.000029 -0.000017 -0.000017 -0.000010 -0.000010 -0.000006 -0.000006 -0.000003 -0.000004 -0.000002 -0.000002 -0.000001 -0.000001 -0.000001 -0.000001 -0.000000 -0.000000 -0.000000 -0.000000 -0.000000 -0.000000 -0.000000 -0.000000 -0.000000 -0.000000 -0.000000 -0.000000 -0.000000 -0.000000 -0.000000 -0.000000 -0.000000 -0.000000 -0.000000 -0.000000 -0.000000 -0.000000 -0.000000 -0.000000 -0.000000 -0.000000 -0.000000 -0.000000 -0.000000 -0.000000 -0.000000 -0.000000 -0.000000 -0.000000 -0.000000 -0.000000 -0.000000 -0.000000 -0.000000 -0.000000 -0.000000 -0.000000 -0.000000 -0.000000 -0.000000 -0.000000 -0.000000 -0.000000 -0.000000 -0.000000 -0.000000 -0.000000 -0.000000 -0.000000 -0.000000 -0.000000 -0.000000 -0.000000 -0.000000 -0.000000 -0.000000 -0.000000 -0.000000 -0.000000 -0.000000 -0.000000 -0.000000 -0.000000 -0.000000 -0.000000 0.000000 0.000000 0.000000 0.000000 0.000000 0.000000 0.000000 0.000000 0.000000 0.000000 0.000000 0.000000 0.000000 0.000000 0.000000 0.000000 0.000000 0.000000 0.000000 0.000000 0.000001 0.000001 0.000001 0.000001 0.000003 0.000003 0.000005 0.000006 0.000011 0.000011 0.000021 0.000021 0.000040 0.000041 0.000075 0.000077 0.000139 0.000143 0.000256 0.000263 0.000463 0.000475 0.000827 0.000848 0.001458 0.001493 0.002538 0.002590 0.004371 0.004420 0.007510 0.007357 0.013387 0.011460 0.019758 0.015657 0.022800 0.018185 13240.415434 12350.859168 14199.068735 9418.088280 13947.180932 11348.011852 11530.911157 11299.649826 11121.883259 9213.684511 8341.971407 11046.477107 12767.626702 16948.347065 14386.673294 6890.787512 11397.554339 12405.949330 9954.957999 9212.280329 9734.922741 10667.730088 15523.009600 14524.101890 14193.968707 17132.408310 13308.184567 12302.564642 11042.854696 12535.511224 6153.547902 8137.093179 11599.537563 18549.906836 15055.436652 17432.673757 16312.353431 13774.401124 14630.779976 13488.867016 9025.995794 14410.898179 13425.403265 9976.254628 20062.666594 14332.379599 15348.627058 15574.876051 15994.940748 14685.050884 13825.128773 10037.956575 9330.148633 11743.682160 12434.321042 18317.873558 16736.286657 14926.669690 15670.757790 15195.016748 11042.667540 12628.503964 12149.891595 11758.612257 6443.413229 12493.217819 15750.363845 16487.911702 16321.324885 16765.170744 13013.392161 12307.524869 14852.652490 17133.019415 14556.520012 15638.459821 12459.156115 18288.785544 16733.492684 17750.692259 16308.919446 17374.216592 12283.161041 17330.388549 13864.302896 12682.947909 15004.683872 11082.436508 16799.818053 18585.838952 19254.012230 16844.752895 18624.057675 18199.819738 17855.303790 16772.773225 15367.861441 13493.874049 11813.720716 20056.514863 21881.842055 20623.145647 18556.229375 16753.114449 19676.954931 16131.291385 19067.478419 14352.055731 11467.803459 13812.898090 22848.728021 19740.636940 20900.310316 15476.234082 22060.299799 18228.526471 20153.684293 14560.660092 13998.394892 12473.792410 11625.188333 22939.185367 22817.480637 22074.130059 23290.605178 19876.406893 18068.796487 13988.672814 15876.207751 15371.725911 19468.428188 15315.939233 24852.137162 21170.089574 21329.055737 19456.165661 20064.873606 19913.202996 17552.276027 14650.071303 14383.013506 16372.544201 12385.313724 22896.489292 22893.140193 21539.450968 25745.857454 24230.138214 20212.472312 20043.839479 19052.578910 18794.947266 10493.214632 6615.272259 25498.956253 22773.952635 24567.137700 21210.176390 22297.406230 20200.131748 17307.904415 15860.603190 8982.965448 8840.036450 5725.906906 27242.537857 25973.292025 22540.453172 19075.845691 18479.345381 16088.302785 14495.032928 13029.295154 7967.424551 -294.077431 556.183564 25889.984077 25431.063941 22207.709103 23551.264477 20980.533432 18127.415391 12860.094908 16751.466574 991.255111 1720.311747 181.789676 26983.687957 22018.877499 23605.600579 18220.522483 12600.317491 12722.078453 14012.661866 6351.176893 3872.767788 2035.338261 853.098018 25964.754480 23673.911004 23624.867601 19012.251646 18852.317817 18961.809553 10252.477111 8948.151703 7507.371370 983.519614 6231.653633 26751.813110 24999.504213 24072.858731 20635.531309 17298.974226 15259.490845 9707.816843 4205.710548 2674.496359 8924.790594 5373.660274 26909.773072 27623.437648 25054.455106 20778.401275 17393.817833 13926.645147 14076.090024 3511.468565 6351.721561 3403.840965 4088.664703 25949.933681 24064.028364 26090.239399 20212.219086 17147.264268 11355.039925 5248.229444 8958.133094 11471.083610 6860.739077 1804.453132 29198.420000 28726.065436 25151.229031 19874.545240 16274.552910 15160.830999 13525.743159 8509.143188 2984.545218 6457.315955 4585.436846 30203.477505 24953.077013 24677.499043 18936.836293 16721.880623 12082.524084 13766.799974 8538.767378 2737.457094 601.033097 4469.533789 28998.398803 23230.212060 23803.399365 21167.709609 17728.803041 15161.382188 8748.592376 7770.182921 7357.902234 7055.781515 1018.898303 29275.290514 28559.771217 21504.173770 24459.606486 22649.206116 12634.358967 11306.366785 12413.016673 9609.353464 2699.442568 -233.869246 28788.927517 25844.832871 22775.751888 22228.756732 17249.719070 15477.006544 14755.102377 7763.081931 6591.613521 4781.438446 5365.015927 28182.535089 28435.344726 24654.734508 19346.923226 18597.881032 19289.538176 14468.579478 7215.421824 7278.082142 800.185274 11034.657892 30459.743188 27652.928957 23042.822908 24594.029157 21083.637385 15822.624965 14507.224908 10496.228338 13746.465290 6495.109871 8735.172962 30391.316951 28198.698488 28173.205120 22713.819752 19019.010902 16797.253666 11594.727968 11096.116978 9045.559270 2855.595429 -3015.800897 30143.206646 26081.989433 23125.552811 24805.924760 19414.415291 19937.439410 16830.609008 4730.121323 -635.221162 2921.913912 -401.775330 29520.868445 28502.292386 22723.945329 25220.346324 23053.660814 17548.196137 14771.971037 12212.366253 -578.108948 6695.923505 5256.113994 30182.419316 27132.667422 27668.312555 22008.917354 18337.266292 19745.500149 17657.911731 12865.100327 5445.824528 12070.048310 12659.170145 30439.077600 27134.483773 28812.218483 22298.888247 19698.562305 16278.233934 15756.793462 11371.501974 4634.524814 10159.506724 4972.195572 33996.956967 27083.602711 26632.445289 23589.018938 24549.253861 21982.816561 18980.734607 14492.267433 7795.126441 7804.782466 9966.252960 32320.114209 30526.785657 27900.347242 25821.817657 22393.458395 18131.952523 16869.920191 12006.271333 8130.037298 10225.063618 4371.453510 31696.081606 29957.580058 30859.339879 24567.996945 18278.332827 15787.801429 17109.194634 11889.964962 9840.311858 9829.141528 3421.292893 33595.140446 31675.351977 27335.192438 21873.664051 24182.627717 20131.456693 16225.999602 13434.746057 8972.598155 3090.874854 -177.526707 37651.349074 28672.228413 26249.027137 25336.116238 22704.277113 20685.363159 13207.940378 11068.270134 10699.132781 -3415.012793 1708.107560 32480.833955 25677.714901 26007.431448 27009.138297 21170.024981 13814.807060 15625.536555 9933.008399 9584.979599 9.027333 -3247.748982 48961.571156 30533.951902 29316.277634 26285.295713 19743.772213 20787.583400 13942.204789 12810.022985 7836.978342 8698.947404 6243.199324 36667.074938 30071.638750 20857.661245 23092.816593 19590.634576 17327.849933 16705.203338 12677.997360 11302.403469 11746.939425 1755.376024 32494.401195 22892.690482 23949.682589 25105.485409 19237.005451 17518.571485 14222.444806 10532.568116 11113.867663 4627.663700 12047.153100 23782.110809 23809.682170 22318.198682 21718.633575 20974.797829 17811.795458 14989.879327 10257.830442 10189.319854 8452.127716 7831.717051 33536.395722 26290.858551 21491.779687 23097.961942 20813.606942 17643.928642 16089.967939 12443.381943 8426.500169 10555.499155 -1812.977778 17250.551452 20589.934270 23772.053113 28486.225588 18456.727015 16326.107626 14583.809273 12007.611251 12781.044118 7785.978416 9001.327045 5695.238501 12453.092516 24774.535975 23039.085969 23178.477751 20315.866643 18358.755463 12661.992823 8740.447639 6725.059474 6280.031802 2745.618700 19479.202938 2484.249303 20905.196030 23094.647923 17764.508869 14552.697317 14884.639239 11152.018063 11025.724603 2666.342195 2124.637284 6326.537653 11998.656437 3836.836796 19479.095950 19206.608486 15495.780087 12714.539008 12135.667514 6711.061922 8444.257834 1549.682335 10262.658230 1404.355354 18617.320120 19105.460856 20141.683921 14782.386295 11508.164737 10326.803739 9085.823084 11147.176099 6194.036853 -8102.743094 3677.992318 25336.117329 19580.980112 18882.055997 15699.744294 13425.485635 12339.241837 9686.476516 10979.050478 12374.814209 8455.562194 11042.250868 19379.285032 19042.367659 19293.613520 14661.628313 12884.361894 11650.936785 10241.844027 -529.134500 32047.112048 7866.228511 17732.811501 10833.061284 16834.505477 19593.898856 16461.064882 14162.699107 13736.532219 11526.517757 3835.902241 36596.637026 10223.307303 8216.485982 20469.010455 20701.872646 17399.941568 16629.422152 12024.151931 11099.482284 9249.190941 6815.734878 32841.371039 12158.990341 11687.115012 11020.956093 25402.397326 23506.778189 13641.490726 13771.664303 12013.724722 9645.106513 14699.487303 37452.521359 17819.539042 14212.038307 12222.265141 18322.979594 23061.400683 17581.713462 13666.754254 10481.004188 8824.081656 13167.142703 34474.506418 15169.180918 31488.313107 17494.643211 17969.378704 18895.813703 14750.119119 14253.008905 13587.127232 10974.965069 6693.499246 34162.966261 22859.388746 13327.435053 16123.903100 10110.987608 18388.130829 15762.029185 14402.432570 12762.607762 12449.215060 10449.053225 40452.908921 41457.949170 8482.778334 2025.053144 17279.904361 18653.370952 17450.819698 15215.627847 12219.158752 10756.907441 20534.294993 36088.833324 33981.169263 1841.852590 5198.947314 2096.703893 18063.142338 19970.228005 15031.070262 11918.283156 10805.278590 7605.329962 27760.404156 24080.969220 6738.822924 8886.211378 10473.242044 21617.339076 14273.270791 14973.287127 11731.919069 9578.008383 8873.810784 24007.803077 20905.197745 11748.677990 10937.775624 20203.734887 16983.905287 19357.832542 14983.120904 11310.857824 12810.096711 3795.740453 24281.752460 25859.258637 27194.967088 15093.059630 28663.847604 20586.698478 14868.603620 14235.613634 11847.206749 9068.776096 9479.467753 24746.329794 29567.662266 35782.704308 28279.025795 4651.852998 12532.015696 13658.745020 12775.030140 11923.573706 11578.346509 7470.252469 23307.188826 25628.319906 21410.762294 -1453.566605 5972.943386 7986.188766 11890.479727 14329.941069 9368.834961 9895.935719 -399.035745 21170.388645 21443.962262 19140.134583 8289.810445 6992.120950 9020.366170 15573.066067 15424.164128 9470.508501 8216.348618 7693.360085 19825.993315 20486.468011 20828.721225 15679.839655 15423.589407 11545.173097 14188.041270 12089.577648 10591.425491 10572.954375 5236.358162 19115.686974 20725.151064 24168.077925 23556.132705 18604.158383 16392.047600 12591.618097 11212.678916 10073.435062 8003.951726 5858.771982 18474.535851 20791.566614 27199.695939 33349.021115 19063.953532 4998.387705 12153.157046 13041.473049 9152.937803 8348.186108 2015.986633 17434.584126 19082.688683 22180.990748 19265.699829 -4728.944990 5472.724568 6440.092279 9642.976678 9353.255682 8216.037234 8341.599260 16179.699091 16876.688664 17527.680449 16197.348495 5964.019268 7283.821000 5077.689709 10022.083287 10428.768233 7140.151202 3759.122128 15103.218491 15403.694979 15472.699801 14766.770686 10304.595463 9907.847897 9304.422616 10330.627002 8266.512609 7709.977285 4683.708021 14319.128143 14704.171875 15298.364579 16525.171030 16188.876332 12806.643839 9276.965415 10762.209078 9089.629954 8802.394672 7814.616384 13688.609091 14239.514283 15470.330639 18741.233119 22906.033708 12763.652670 10762.054000 8656.351631 9520.000911 8518.290187 -238.571010 13050.844150 13544.382633 14494.524547 16525.275965 15083.462786 -4621.244981 3946.617247 8286.918305 5757.695815 8237.221478 6975.845641 12385.231951 12677.241148 12916.906932 12776.926317 10939.391295 3064.794745 3518.629564 3008.266889 6688.068734 6582.486355 6678.753756 11765.865119 11965.704971 12015.195821 11590.928242 10326.371374 7190.414608 7448.960677 7117.864035 7093.919232 8013.361919 2780.820231 11222.124365 11482.641035 11786.761178 12181.159515 12785.710193 12659.742255 7561.655796 7401.372960 6533.690947 4985.930164 5961.399002 10706.164363 11055.165691 11627.190656 12794.356583 15678.679399 20240.021493 8501.019718 8881.602282 4823.305890 4293.505849 3517.107168 10158.368299 10514.812962 11074.132867 12032.620159 13896.408933 12407.780854 -6247.426225 766.834524 6764.389739 4552.890366 3235.317224 9566.280062 9856.823830 10212.016164 10487.295551 10288.882538 8137.154806 1489.760939 2129.736081 3421.311099 4781.504357 6530.786192 8959.021885 9183.325621 9399.422717 9436.843869 9007.767446 7865.979840 4924.461018 5477.095591 3270.338656 4591.950465 1865.264497 8365.781762 8561.557701 8764.486894 8905.776365 8913.270847 8640.476996 7609.541008 4497.028195 4452.390669 4042.151749 3427.334432 7794.027799 7986.338038 8226.699635 8540.128652 9098.172702 10457.056511 11401.258706 3036.210130 4246.207769 3627.512173 2805.718016 7237.321516 7425.175353 7676.870180 8028.720627 8596.476214 9699.357712 8798.208742 -663.565680 5502.271669 1971.432573 2945.045552 6690.611080 6862.274015 7086.075183 7363.444783 7671.402921 7917.355459 7433.978224 2913.570979 2393.669298 1566.875148 2580.737618 6156.223318 6304.536097 6487.042561 6686.846475 6871.438239 7040.951333 7125.204366 4527.785396 4218.822010 1739.242421 2983.077635 5640.994117 5766.019731 5911.767277 6057.097850 6171.124635 6211.595412 6173.573955 4721.936783 1711.220146 2191.821788 2865.064885 5152.100647 5257.868436 5375.964724 5485.606929 5564.903327 5612.523939 5832.967821 5289.327869 3501.464184 1629.144021 2197.476727 4695.053001 4786.995059 4886.628109 4972.758769 5017.754664 4981.791347 4830.541632 4312.908372 2880.398070 2316.274697 2625.839297 4273.152086 4357.010890 4447.769817 4525.079242 4557.879940 4491.903709 4233.006348 3599.531909 2396.217843 1865.260378 1964.116703 3887.351578 3968.175154 4059.108175 4144.565028 4201.002521 4187.888043 4031.550492 3640.786187 2973.438595 2785.954915 1957.335722 3536.469832 3617.277712 3713.815886 3818.215429 3922.783882 4020.859003 4098.228169 4012.066069 3484.262722 3501.133078 1859.901435 3218.038347 3298.966061 3400.546839 3521.640042 3669.020496 3872.670032 4233.388174 5002.849285 5978.121671 2399.546406 1873.326658 2929.627582 3008.378806 3109.329591 3233.391459 3389.605932 3609.649617 3989.019351 4857.409450 5624.779442 1576.954030 838.781642 2670.003087 2743.459436 2836.877777 2948.709170 3079.141186 3229.225480 3382.212825 3457.342211 2957.055251 823.458131 1213.437757 2439.515896 2505.422298 2586.982037 2679.108502 2773.261103 2850.376816 2859.060033 2678.115320 2100.337421 1282.651614 1315.437064 2239.689496 2297.426393 2366.470224 2439.767885 2505.952939 2545.362903 2525.564453 2407.837726 2184.219001 1655.994671 2046.224772 2072.482424 2122.857285 2181.141516 2240.106687 2289.531472 2315.748339 2305.030776 2257.529657 2233.069712 1989.026473 1852.909078 1939.769931 1984.408518 2034.395167 2083.302221 2122.762638 2143.225935 2137.476778 2107.753492 2090.780609 1955.164667 1705.270652 1843.510168 1884.123183 1927.806984 1969.643320 2002.187441 2016.901370 2005.422029 1959.601977 1875.450367 1690.234308 1238.414544 4966.859910 12022.623027 8283.953170 9632.182743 7548.660123 8431.031904 7000.019275 4080.427155 3292.980550 300.387685 2597.993499 1786.384773 -2171.095502 -6977.824871 9375.053624 4291.907644 8842.542511 5635.508660 5589.617776 6802.126149 7750.223430 3011.928255 3979.581184 863.249533 -953.685185 1106.435479 1157.814039 390.081330 6279.781517 9746.030583 9229.067622 5292.771400 7421.590846 5366.558833 5189.183607 5086.494135 7084.298956 2631.608281 3887.225122 -423.586172 158.056471 2122.761928 9931.700083 6827.926144 9212.944216 10382.635314 5984.817561 7403.503978 6914.983989 2595.793982 2951.845544 5033.002501 3019.274596 -35.319290 979.935701 2579.531712 11315.020841 9659.032191 9870.474974 5554.147475 10670.001723 7130.020627 5174.431242 3327.310035 4147.756288 944.722086 4709.126904 1861.698500 1575.369429 940.611703 9538.200048 8550.988901 6867.284020 12425.070469 8908.115208 4643.326937 7798.320428 6557.524643 4686.520674 5818.254983 6822.509709 1916.981749 1857.675964 1782.444300 12683.472591 6499.614765 12259.420546 9123.860344 6424.641739 4477.826306 9550.635507 6765.812444 3566.120677 2414.064829 4278.008976 2097.524155 735.198459 839.850647 11325.692962 14881.738928 11999.523882 10663.782318 6803.135802 9295.572266 10198.991463 6091.619747 3028.181730 4357.246840 4174.947057 2188.662324 1897.703784 2023.581650 14864.223645 15466.334875 4097.927397 8883.360917 10787.891170 6922.305241 8562.618444 4828.091896 4993.403543 6907.017363 3976.072337 4766.745456 1679.967926 766.895881 10455.684742 13401.997801 8304.963113 8800.662968 9836.252197 4616.313648 11026.229142 9117.617490 4391.640583 6013.267547 5600.817449 664.528954 1583.337421 5551.798353 10967.480857 13320.902415 12709.440264 4967.180571 8345.911935 6511.189760 9179.319005 8873.207168 6899.561509 3810.659505 4799.103506 1824.852604 6251.330933 11339.395169 13506.870628 7010.184655 11120.626392 14799.536646 3448.088209 8695.673931 4788.360927 8508.736836 8754.077092 6357.328521 8287.237638 5697.829666 4050.923925 9027.372662 9327.800523 8647.833922 2153.548829 8520.494381 11850.252896 5846.178056 12094.268404 10322.833162 13894.032902 9408.199129 5148.485881 4687.872551 4136.138228 4789.321809 1288.286826 6353.562499 1282.458536 4487.823955 4818.005379 669.714230 3334.935278 3146.583587 3395.144039 3564.845383 4720.365690 2645.176997 3119.550548 3080.630801 9145.562177 3425.235376 267.411216 3793.116585 4135.343701 -839.590592 742.107453 1755.105285 1257.641048 823.193344 3523.686028 978.956490 2393.068597 2810.219422
</DataArray>
<DataArray type="Float64" Name="Velocity" NumberOfComponents="3" format="ascii">