<VTKFile type="PolyData">
<PolyData>
<Piece NumberOfPoints="1945" NumberOfVerts="1945" NumberOfLines="0" NumberOfStrips="0" NumberOfPolys="0">
<PointData>
<DataArray type="Float64" Name="Pressure" format="ascii">
 20538.566026 20953.108881 22428.001146 21717.591051 24800.468045 23672.932580 24689.478943 23747.432174 22788.595775 22276.222452 21602.678905 20562.429306 21424.663862 21427.305261 21208.197613 21501.158201 20223.725315 19849.566091 20677.317021 19810.901969 21808.235257 21035.711456 22551.497143 21662.167671 23019.646133 21385.481935 24241.710710 22318.532272 25265.250564 23599.380056 23941.678890 23227.047787 22164.631607 20493.293266 23150.982440 22871.272415 23309.885019 22373.710937 23259.605223 21571.933328 24550.321080 23573.411491 25029.479291 24412.167881 23864.625829 21875.904269 24976.287734 24047.605727 23021.127252 23125.774395 21504.013475 21522.741519 22866.281499 23102.567783 23678.545117 24186.131188 23750.941493 23697.730090 24266.256282 24485.441391 23690.380301 23374.592616 23970.019491 24174.098650 21746.132994 21902.857463 21764.608799 21912.350859 21508.616213 21638.086633 21382.370975 21555.927432 21658.534732 21723.104581 19851.607607 19082.692842 19856.244086 19202.712497 19582.396095 19091.558047 19495.207391 18223.718199 17914.027579 16016.002360 19170.720989 17741.702130 16290.003479 14591.563318 16470.913278 15545.240695 16848.680069 15868.230272 15609.608075 14225.363397 18802.030272 16000.310305 23801.560804 20073.261082 31488.298735 27647.299440 41341.269250 40967.241798 43489.696674 34564.041250 36831.619192 24104.594159 35233.246022 26499.035439 39184.719144 36452.782202 41115.549133 41275.425220 39641.069555 38953.724947 37759.479682 37234.124875 36024.489484 35472.306391 34670.177658 34449.044242 33438.341574 34212.537892 31395.928294 32024.269938 28686.492163 28341.791666 26269.396272 25498.304131 24611.832031 24165.582256 23435.449893 23446.886763 22340.958185 22515.576168 21238.393564 21405.746391 20221.016970 20456.516868 19304.629296 19669.217737 18401.728107 18834.416934 17442.807566 17829.028195 16452.254101 16738.020039 15505.718196 15720.940682 14650.783370 14844.733376 13882.069552 14070.679434 13171.196916 13340.430293 12500.225113 12638.179509 11865.769682 11979.076279 11263.980379 11367.589738 10682.140582 10783.610884 10104.961151 10201.323931 9524.557152 9610.148055 8942.794534 9016.347759 8366.061244 8430.723203 7799.594292 7858.957351 7245.961519 7301.424344 6706.750311 6757.784546 6184.416657 6230.108399 5682.689772 5722.798786 5205.831628 5240.966876 4757.648273 4788.970417 4340.803910 4369.637840 3956.574986 3984.065260 3605.008652 3631.859569 3285.389117 3311.756299 2996.842214 3022.426545 2738.854771 2763.155068 2511.530120 2534.123782 2315.538588 2336.266332 2151.857033 2170.875008 2021.443996 2039.154959 1925.151973 1941.373224 1864.237337 1878.543252 1838.889372 1852.934329 20740.332380 19419.762207 17266.512950 13950.914037 10569.859898 8247.883726 4880.040484 1348.625963 363.213577 1992.474881 806.756295 -2801.043648 -2730.763832 -868.012451 436.020088 -1744.247985 -4783.285780 -4694.550329 -5309.660706 -8355.745360 -9490.480359 -9203.017964 -8795.695552 -8258.433537 -7647.220673 -6988.058201 -6305.870334 -5623.773261 -4961.172258 -4332.752470 -3748.549713 -3214.577851 -2733.620499 -2305.991781 -1930.195205 -1603.468332 -1322.222125 -1082.388619 -879.690077 -709.841434 -568.696806 -452.349993 -357.198033 -279.975824 -217.768752 -168.009069 -128.460908 -97.198820 -72.590244 -53.330415 -38.847984 21055.946077 20099.500326 17354.259223 14484.692848 11229.477823 8262.752059 3609.647874 366.057301 -259.161295 2415.917402 737.785185 -3193.652044 -2738.342084 -717.774462 -127.752732 -3031.280912 -5509.836129 -4343.042305 -4048.110525 -6745.839188 -9174.311295 -9018.410117 -8718.370625 -8232.109570 -7635.739780 -6983.716593 -6306.646926 -5628.567775 -4968.944055 -4342.516633 -3759.459247 -3225.958660 -2744.965949 -2316.939286 -1940.498976 -1612.974352 -1330.846974 -1090.102069 -886.500913 -715.785999 -573.829858 -456.737532 -360.911782 -283.089100 -220.353433 -170.133373 -130.187346 -98.579339 -73.640668 -53.870776 -37.510793 1901.048846 1927.515273 1956.572506 1980.537246 1991.617091 1980.908330 1938.332743 1851.943166 1699.483991 1429.234991 1089.344595 966.469032 945.882144 871.748727 785.508199 697.785110 612.211386 531.202171 456.314112 388.413022 327.827133 274.494418 228.090271 188.128612 154.036545 125.206526 101.031179 80.925582 64.340872 50.772001 39.761565 30.900997 23.829953 18.234420 13.843956 10.428322 7.793741 5.778975 4.251371 3.103018 2.247103 1.614553 1.151007 0.814134 0.571317 0.397676 0.274413 0.187452 0.126306 0.083083 0.051219 1876.219012 1902.847102 1929.848063 1951.373503 1959.667444 1945.499582 1897.867959 1803.141375 1645.981611 1425.990404 1197.039580 1052.494824 958.444912 872.339514 785.409111 698.085308 612.967397 532.295062 457.612797 389.807115 329.233173 275.854209 229.366478 189.299788 155.092636 126.145267 101.855407 81.641339 64.956097 51.295648 40.203007 31.269615 24.134850 18.484222 14.046674 10.591264 7.923463 5.881265 4.331263 3.164825 2.294467 1.650510 1.178048 0.834280 0.586185 0.408543 0.282276 0.193083 0.130335 0.086286 0.056036 -29.652012 -25.583936 -27.462692 -23.817633 -21.535128 -19.725377 -15.177405 -15.021713 -10.951113 -11.016619 -7.895557 -7.975752 -5.662273 -5.727411 -4.034754 -4.084100 -2.856086 -2.892711 -2.008382 -2.035282 -1.402991 -1.422585 -0.973678 -0.987840 -0.671348 -0.681507 -0.459912 -0.467144 -0.313053 -0.318165 -0.211740 -0.215326 -0.142316 -0.144814 -0.095059 -0.096787 -0.063104 -0.064290 -0.041635 -0.042444 -0.027304 -0.027852 -0.017799 -0.018168 -0.011535 -0.011781 -0.007431 -0.007595 -0.004760 -0.004868 -0.003031 -0.003102 -0.001920 -0.001966 -0.001209 -0.001239 -0.000757 -0.000776 -0.000472 -0.000484 -0.000292 -0.000300 -0.000180 -0.000185 -0.000110 -0.000113 -0.000067 -0.000069 -0.000041 -0.000042 -0.000025 -0.000025 -0.000015 -0.000015 -0.000009 -0.000009 -0.000005 -0.000005 -0.000003 -0.000003 -0.000002 -0.000002 -0.000001 -0.000001 -0.000001 -0.000001 -0.000000 -0.000000 -0.000000 -0.000000 -0.000000 -0.000000 -0.000000 -0.000000 -0.000000 -0.000000 -0.000000 -0.000000 -0.000000 -0.000000 -0.000000 -0.000000 -0.000000 -0.000000 -0.000000 -0.000000 -0.000000 -0.000000 -0.000000 -0.000000 -0.000000 -0.000000 -0.000000 -0.000000 -0.000000 -0.000000 -0.000000 -0.000000 -0.000000 -0.000000 -0.000000 -0.000000 -0.000000 -0.000000 -0.000000 -0.000000 -0.000000 -0.000000 -0.000000 -0.000000 -0.000000 -0.000000 -0.000000 -0.000000 -0.000000 -0.000000 -0.000000 -0.000000 -0.000000 -0.000000 -0.000000 -0.000000 -0.000000 -0.000000 -0.000000 -0.000000 -0.000000 -0.000000 0.000000 0.000000 0.000000 0.000000 0.000000 0.000000 0.000000 0.000000 0.000000 0.000000 0.000000 0.000000 0.000000 0.000000 0.000000 0.000000 0.000000 0.000000 0.000000 0.000000 0.000000 0.000001 0.000001 0.000001 0.000002 0.000002 0.000004 0.000004 0.000008 0.000008 0.000015 0.000015 0.000028 0.000028 0.000052 0.000053 0.000095 0.000098 0.000173 0.000178 0.000312 0.000320 0.000553 0.000567 0.000968 0.000991 0.001673 0.001712 0.002855 0.002917 0.004816 0.004906 0.008042 0.008126 0.013399 0.013151 0.023103 0.020014 0.033429 0.026916 0.038311 0.031015 24031.071569 21292.985243 22599.083120 20458.810037 18229.039025 17383.685131 22960.451506 17942.942088 17511.613234 19231.676993 15547.576474 20333.414264 20200.164190 19339.490543 19453.456199 11543.886681 16869.081942 14933.849379 12200.066194 15377.993146 15620.315147 16312.275107 20422.364173 18035.312921 20070.087510 22045.172341 19826.732967 15263.759821 14279.965658 13651.889511 10641.363126 9642.898166 18442.538514 20267.273316 20071.594016 18775.591811 19078.135672 18382.189468 21232.041552 17326.927554 14927.459849 19072.414642 15909.077149 13278.798740 20059.304212 18430.173879 22342.469030 20901.742999 20410.999809 17634.688076 16728.188840 15896.231780 11383.274608 15629.745668 15458.045780 22066.198715 20731.683386 21361.598839 20030.583350 19004.794495 17382.142243 17611.556483 15071.341375 14950.371319 8658.552957 16206.310496 19353.704381 18813.187376 19834.786044 21695.123169 17094.555199 16864.208767 16823.972652 16819.857937 15884.013009 19828.501453 16212.534919 20419.576394 20346.369425 21092.048446 22587.585357 23468.705025 16492.514956 19642.073427 15335.940804 13218.916479 14778.564786 11895.711582 21496.120614 21704.767418 21353.613000 16872.303338 19089.270398 18366.760811 18835.262159 20822.536909 16036.751306 14794.345215 12964.551804 22016.917546 21774.689736 21205.223557 20321.279766 16929.624466 22707.034838 19649.793150 17896.086758 13420.404018 10835.789422 10289.607916 23796.443265 20944.897923 22002.748456 15349.993007 21094.506253 16385.678819 20387.885349 12744.486996 12348.914684 10074.620321 8976.804359 23854.902930 19243.924909 20875.807685 20591.744423 18469.842747 15532.039872 13180.543397 15118.423309 11300.008891 13226.177470 10315.027915 22961.326429 17723.015870 19223.173473 17263.288397 19099.757637 16878.447471 15344.320716 13243.941747 12524.234350 11993.007164 9624.777807 20165.648408 20791.720325 17961.719193 21387.242142 19966.067400 15119.071748 15289.637258 12448.978377 12648.070661 5981.744107 4509.392988 22163.744897 18367.816961 19931.668532 17223.908671 15927.564112 14451.158760 13298.881928 10210.251529 6043.358157 6757.869748 4125.625925 21627.267393 20631.902001 19008.252360 13274.952047 14497.939131 10088.223034 9919.700158 9987.704135 3982.010615 963.516669 4246.128268 18538.762407 18461.625610 15207.135084 15948.249796 14008.424161 12840.105324 7398.583331 10638.133158 0.214216 1918.274405 447.348548 21671.535488 18124.976210 17949.363801 13404.917312 9774.682706 7515.967182 8358.852579 4434.868863 3609.666704 508.410234 604.681023 19501.040642 15685.331394 16390.602362 14136.144024 12303.454534 12084.163217 5142.826003 5572.873713 4557.971636 1388.658295 3598.541463 18554.100337 17826.749956 16124.111777 14703.289036 10318.166722 9710.081996 7436.604687 2937.652376 1793.891028 2039.399137 200.738663 19067.680944 17408.915067 16454.776773 12320.317143 10618.056681 6859.365517 7876.489667 1355.172896 -26.685627 342.512927 290.361565 16942.022912 15659.592162 14199.646176 12412.168866 10774.818615 5812.595559 3715.594911 3492.130798 4637.445087 3058.944299 270.846399 18903.903093 16019.660347 14948.479231 12113.075263 9333.888689 10634.265220 7014.083435 3800.972517 3086.674700 4344.686385 25.581864 16107.029520 13805.493420 12836.152450 11133.877565 8923.866422 8582.385629 6320.275499 3566.680372 990.651294 302.638590 643.427359 15298.200330 15190.154648 13008.207771 11187.011810 9019.555941 8640.000833 6280.479518 2113.035176 3388.337748 2033.500558 335.972888 16433.013634 15193.441650 11213.841058 11166.545438 11029.330485 5374.089963 6131.507960 4221.491617 3386.121790 -636.174762 540.959484 14341.824502 14934.741116 12701.266158 10504.132171 10692.451047 7824.898238 6328.719074 1377.976943 3600.797529 3281.689059 912.423803 15250.234530 14340.327579 13531.523497 12397.833275 8536.466577 11000.913275 7711.315202 2639.187180 2167.722306 770.575922 -1343.146850 15469.779495 13448.736063 10580.768020 11444.015005 11277.736557 7977.419974 4966.253620 3197.191251 3622.031114 1862.486635 1945.584193 14830.851915 15555.721718 14157.522001 10691.127962 8963.738434 5946.766939 5616.830878 3774.854070 3195.399336 1349.667659 6292.446223 15109.637223 13536.575421 12896.248128 11557.785676 9275.604474 8342.353869 7876.441966 809.304616 954.839949 -143.276911 1210.325522 16095.485008 13723.080965 12872.520391 12116.327083 10425.481723 6270.654429 4187.034195 4493.558719 292.591771 1700.978459 -285.515026 14560.525847 12477.968720 13625.665080 10132.330564 9152.200347 8356.054312 6747.389879 5415.433114 1457.164814 2462.851159 1344.411840 15232.129561 12088.192086 11897.072532 9641.438475 10415.259358 6814.590096 6835.077790 3380.421374 842.032055 1049.457196 3253.781413 14457.898880 12440.966454 11615.561965 10957.549194 10596.104653 9432.565062 5060.079524 4218.006581 1874.997177 3436.287020 697.473118 16063.537123 13379.128289 13341.246423 11937.108084 8631.714275 8129.764312 5737.372920 4039.930542 1696.549359 2389.261946 983.550512 16471.540021 13272.879537 13822.906343 10885.965063 7027.724325 5973.326315 5536.742872 2646.989229 2515.788322 1315.910277 48.814332 16902.018227 15822.423889 11196.220559 10930.360368 8331.334339 7099.956268 5044.638736 3229.171895 3255.826867 -567.967278 139.202674 20442.548577 14107.245163 13543.133924 11719.105178 9161.519949 8061.084393 3716.092523 1544.407401 3270.072477 926.119761 -1499.723343 16029.636416 14096.621172 13698.385577 9185.862318 9893.236888 6700.444249 5776.141199 1704.806966 2148.271042 -1513.364541 353.324922 14027.963759 16998.129039 11641.974406 11224.018653 8859.701603 6674.304157 4785.309586 4825.199165 1602.648183 2902.923869 3581.698427 18919.464923 13487.260592 7259.141650 10339.255708 10808.276358 6571.281114 5674.032984 4699.360859 4657.412558 1446.014198 1853.402082 15955.878670 13905.421377 14564.326849 13543.590367 10421.839820 8893.686324 6777.280381 5062.295418 1797.167133 13.055545 -4001.558734 7815.142496 15450.035510 12885.082752 12091.214989 10494.355152 8179.231933 7398.982152 7449.469727 3429.743899 1191.991450 4029.089206 14661.088352 11447.874354 12551.089476 11848.537547 10248.528451 8664.511407 5766.726769 4588.193490 3738.562566 3727.243883 2997.370156 8443.331078 13715.850086 15748.242807 13142.205296 9941.729571 9926.756496 8794.248868 4333.192255 4378.233809 3103.702933 3509.129074 2729.234155 2300.704597 9424.979552 12417.433314 10875.390327 11322.018841 9868.086081 6406.089258 2653.673366 1112.919973 5796.573658 4469.289745 6779.296059 -0.501984 13264.915373 11421.663231 8313.865801 6852.229752 7231.397614 5575.585906 2907.093219 7445.058290 -1035.166534 1042.679997 4150.975060 7420.298924 13581.947116 13421.203604 7116.085405 5964.659558 3264.567479 2146.718962 -551.678477 892.722513 8676.947744 410.002375 7845.947743 10010.662758 12972.401825 7705.407868 4607.553168 3686.199705 3978.122405 10148.748898 5482.515768 -2206.500929 2834.173819 11715.850076 13590.407293 9244.021372 9923.944082 6105.748289 4549.925513 4948.549958 5395.589583 9247.930066 2425.206401 1637.843110 14351.941583 12056.688362 10082.606943 9217.180648 6762.422096 4864.804182 4277.975828 5177.103475 19999.585628 1058.003654 6700.085377 12633.967133 10142.348801 13288.377082 8683.997427 7694.567430 4669.927539 4463.616189 7409.301961 28780.152184 7841.741198 9237.418458 11869.002568 8416.985682 13468.500152 8076.614392 6215.834477 5731.267724 4817.950409 10481.614501 25557.497531 5254.704418 12338.575081 6600.664810 9212.605749 10842.106953 9063.362899 7171.539697 6778.257337 5860.364513 2266.752114 31180.506392 15084.690121 2831.248065 6925.535284 11702.942295 11921.399675 10149.173719 6087.568286 5138.519226 7625.402799 -2545.178021 29228.242456 13130.418018 23853.786424 7820.705402 15950.892311 10335.915690 8695.409631 8505.998358 5527.434403 2843.132745 8880.113426 31185.975657 21542.024570 7121.742076 13187.392440 9827.568993 12721.772288 10210.399393 9940.963366 7920.036755 6967.462949 5567.378130 35847.518555 34410.902111 6614.612286 2183.869499 13095.549208 13190.748759 10496.583899 8462.139214 5395.989720 7238.738568 8755.057176 31904.437175 22775.567394 -57.014530 3276.010506 3781.835752 11114.466544 13584.858051 8740.551108 5986.444232 6080.670328 6241.371401 25144.768226 16459.397526 4763.418733 5706.263945 8229.926912 15356.431768 10122.866621 11548.528197 7859.499803 6905.724296 5985.683670 22395.340713 16001.856099 9001.837718 8972.825916 13190.907936 10641.876949 12195.819832 9709.688760 6481.404281 8710.231825 15814.054080 22740.508855 20292.310622 17377.060022 10082.592539 10262.548441 9932.746770 8609.924231 9297.776370 7369.157997 5054.123534 4083.525915 23546.595070 24415.197149 25751.672952 20427.404101 3320.056477 6849.968829 9438.371265 8731.414237 6630.210421 5611.835235 9356.353023 22812.274315 22647.477464 16072.450044 2220.794057 7030.401940 6246.363873 12107.574368 12566.836190 6739.232157 5403.915950 13394.518841 21414.829408 20265.985978 15555.779037 6854.701128 4272.941212 8278.214416 11616.823721 9928.183326 8572.503193 6274.353599 4588.677664 20730.177008 20686.432923 19121.389317 13609.495582 10637.178468 11628.689139 9763.516466 9730.886182 8804.513413 6449.400189 6885.394844 20379.295045 21427.666460 22831.269078 21882.730123 19939.470975 9714.814737 9531.890654 7711.946578 8651.779611 5354.887170 5299.154385 19753.918263 21298.057465 23650.417537 24251.830530 9992.878133 3380.391022 10101.038142 9010.981409 8224.354547 5573.503536 5444.066640 18587.728743 19590.534354 19905.861247 13125.578714 -2894.603533 4961.817081 4724.434378 8020.198154 10480.547619 7847.520865 4949.854510 17221.402947 17540.091807 16758.206764 13092.643023 7226.354918 4765.278384 6960.286221 7710.498777 8241.849363 5996.314117 4052.773918 16085.684481 16359.745095 16227.998061 14804.269618 12208.944480 11081.599506 8005.521354 10285.937260 8174.913130 6336.675082 3346.238483 15248.714290 15874.239495 17053.844862 18708.367484 17281.920590 10777.758257 11333.635040 8555.131314 8619.445240 6853.902637 6710.260632 14518.829460 15359.248483 17182.333174 20702.855256 21174.219823 13590.587954 11686.433202 6722.272334 7598.332364 4982.117616 1823.368316 13742.305347 14436.667040 15637.421820 16963.688757 12125.597333 -2323.336466 4063.667412 9657.651587 5152.962656 7503.965726 5202.860548 12941.089273 13350.876975 13692.960536 13150.130077 9817.681197 4574.514317 4019.193855 4318.693478 6672.843607 5939.730378 7775.230919 12211.886544 12475.648998 12581.074738 12105.484390 10569.206268 8596.617042 8279.172301 6224.363368 6283.600852 7639.177810 1606.070031 11584.283559 11869.259499 12194.437925 12567.662283 13036.104675 12418.323879 7538.956986 6872.508371 5776.551635 4381.307359 6408.895246 11005.181128 11347.198593 11902.513483 13003.921199 15233.282923 16770.704307 7631.627083 8396.022052 6756.189271 4320.271137 3706.787571 10412.209357 10742.065479 11266.947535 12191.369681 13377.398421 9689.783040 -3384.620741 2235.694732 7188.887046 5079.554033 4001.747748 9790.347191 10046.183776 10361.244336 10600.099439 10135.164758 7328.366841 2366.906615 2821.640716 3140.520410 5044.112851 5257.710426 9164.313267 9352.062787 9523.157387 9498.593303 8901.310495 7206.756710 4627.353920 5088.035695 3414.259388 4369.951757 2469.863684 8558.841718 8719.236714 8876.131994 8950.099529 8836.566126 8368.864851 7219.689681 4182.774458 3885.269873 4055.450081 3812.172091 7978.398544 8138.222155 8336.041914 8586.382426 9016.360368 9788.646969 8874.488481 3930.152773 3799.719569 2907.198561 3369.193302 7414.864299 7573.936643 7790.101343 8096.487205 8597.117714 9247.850853 7292.687040 553.459420 4625.106467 3705.218389 3476.300323 6862.214246 7008.358581 7203.367727 7452.469537 7735.614080 7845.190629 6798.798696 3271.055038 2672.977716 2185.128285 3144.505262 6322.298871 6446.955475 6603.618004 6780.350861 6947.184487 7038.089705 6610.817120 4213.459286 3817.381939 2355.226632 3148.358926 5802.000208 5904.064244 6024.035883 6145.186199 6240.495640 6268.492380 6056.093183 4620.436749 1773.430161 2213.106959 2577.036493 5308.804097 5391.988874 5483.746524 5567.294135 5626.913937 5676.871043 5782.223338 5283.713031 3761.248298 1894.918956 2495.831394 4848.397025 4918.414823 4991.633895 5050.096898 5071.363369 5024.819028 4823.266282 3985.638852 2506.117186 2364.729715 2730.133683 4423.966923 4487.009256 4552.041958 4600.994131 4605.661785 4513.347093 4214.357520 3549.970230 2488.097794 2034.054755 2231.771581 4036.157513 4097.644261 4164.266723 4222.095712 4249.505691 4207.039440 4017.534323 3591.348475 3031.193129 2768.880614 2223.349870 3683.443622 3746.592867 3820.720818 3899.378166 3976.797529 4047.985289 4098.034201 4027.782779 3752.739891 3297.717105 1960.854144 3363.103437 3428.073730 3509.309454 3607.041040 3730.284164 3912.236539 4257.575338 4935.568314 5295.859477 2077.122923 2015.843646 3072.597064 3136.988271 3219.550687 3322.454136 3456.854397 3656.927114 4016.194355 4658.622825 4598.069157 1686.204897 1201.372237 2810.710750 2871.233103 2947.956242 3040.312595 3149.982871 3278.850854 3404.954046 3375.614339 2673.498714 1062.563630 1387.883017 2577.898760 2632.102646 2698.362318 2772.199129 2845.836093 2900.017407 2879.369559 2651.966155 2024.708453 1286.585644 1281.363224 2375.817572 2422.887451 2477.761640 2533.645017 2579.434952 2595.211307 2547.205367 2396.890992 2133.015164 1737.212012 1983.116578 2206.551114 2247.100554 2292.123276 2334.384607 2363.652199 2366.124619 2327.760055 2248.282439 2149.570325 1920.545009 1898.631215 2072.071530 2107.529019 2144.964565 2177.759145 2197.374144 2194.134263 2160.552731 2097.240453 2009.867888 1797.059216 1598.903546 1974.378611 2006.259046 2037.921705 2064.112516 2077.150189 2068.448766 2029.831275 1953.595993 1829.379340 1612.237600 1246.532733 9366.952964 23459.034695 16055.281904 15976.174517 13450.157851 17738.552331 13579.815268 10328.241641 6419.698742 5160.335184 3826.825869 2005.716553 704.721067 -9641.733874 13677.077966 3971.035961 12641.839887 10477.582516 9723.722088 13223.559910 12795.401729 10288.878919 5998.884830 2929.846102 2583.230434 5400.757917 2745.960337 -439.007979 9052.159505 14488.441544 11187.216910 8939.465343 8434.729013 6003.455116 8097.964618 6778.914061 9682.703065 3308.444580 4592.258905 5181.039579 1631.487138 3214.616285 14338.204433 8345.677019 10601.207938 13446.578973 7628.143001 9356.548801 9172.658964 4764.423702 5231.195358 5700.187889 6827.245158 1824.112079 2595.652236 2810.069309 12762.312344 14849.513748 12655.120516 6905.241965 8908.899464 9832.775291 7756.687239 2943.079517 6028.063457 3038.184522 2457.318907 1607.993687 2817.528967 3154.273677 10405.985576 11884.355758 10533.998780 15998.095318 11737.756307 6130.871562 9889.314388 11295.290588 6198.811105 7769.724181 7113.124052 1971.108299 2908.268044 2143.454907 18670.428792 7581.833557 14188.965264 9887.200749 5975.998970 6056.814558 12466.761213 8929.901902 5845.721506 4288.555061 4275.775888 3309.158712 795.654829 2004.273032 11275.092785 13764.577548 12254.715571 11131.355925 6487.101189 10891.050317 8940.357276 7499.434530 4110.412867 3886.484552 5867.496690 2770.755973 4098.847761 2448.395608 14361.659273 15469.788093 4212.894953 7572.935627 10460.060309 7173.525569 8882.352077 6033.880643 4899.013738 8859.553887 5644.789971 2870.788559 1092.550515 3106.189320 9146.086273 10313.371059 6920.525008 7230.169604 9423.093347 3654.897860 10384.842199 6896.184863 6706.903414 4369.394204 4621.908880 3628.457026 2642.079934 1821.379227 7935.318182 10054.475364 10330.025875 3599.847471 5826.606634 6051.449361 8531.211323 6452.413441 4323.031700 2100.927213 3218.926982 3826.454545 3479.100024 3273.161200 9977.183537 4836.435401 7453.742146 10387.935789 3714.792492 5132.618631 4438.482391 7232.691841 6469.673516 5457.462141 7529.731838 5981.877944 4108.438220 951.733211 6045.436290 6224.356924 684.640075 7468.132572 5202.821488 4488.945063 7970.499370 5879.593030 8878.075427 6434.480730 4256.642229 3253.115370 5261.123619 2106.700252 1155.373834 3184.608277 1156.281950 2207.652220 4090.111677 2521.588681 2909.162743 1753.937078 514.759192 2568.606840 3494.152580 1418.173168 2850.956726 2383.594859 3392.702993 2235.629132 1442.028340 1608.983989 -221.667958 1568.396576 667.655211 2148.041339 1466.620922 1232.597958 2888.266059 656.007599 2679.814559 1587.221503
</DataArray>
<DataArray type="Float64" Name="Velocity" NumberOfComponents="3" format="ascii">