<VTKFile type="PolyData">
<PolyData>
<Piece NumberOfPoints="1945" NumberOfVerts="1945" NumberOfLines="0" NumberOfStrips="0" NumberOfPolys="0">
<PointData>
<DataArray type="Float64" Name="Pressure" format="ascii">
 15330.373976 12956.390003 12231.264095 9276.842421 8759.886508 6805.402850 9051.347529 7879.490751 10631.042760 8498.466891 11147.940130 9602.031895 10485.574008 8109.701542 11385.414567 10983.598587 11667.558041 9557.371365 12030.621224 10192.663824 12658.632144 10108.083093 13964.891709 12513.304416 12290.808120 10186.321709 13009.238548 12942.431226 12883.455182 13669.370448 13256.096696 12336.774340 15049.033682 14801.771989 15154.006544 14065.284735 15293.263556 15361.329592 16843.137268 15664.123278 17554.896810 16172.921696 18874.571978 18018.846382 17602.972341 17031.002895 17186.154649 16962.861449 18250.688463 18692.310928 18008.347765 18007.987776 17706.957907 17993.922991 17796.857416 17150.076484 18961.252596 19572.799720 20128.689962 22196.818397 19494.129595 20649.235003 18255.584210 19160.783244 20939.746703 21101.338327 23146.450944 23286.996351 21638.775694 21813.565082 21009.769012 22100.341657 21950.324089 23441.897253 23231.685105 26118.875649 21118.822080 22095.015683 21175.162063 21918.737145 23362.301436 25295.847583 21794.681668 24055.883446 21248.692874 22472.055224 23244.015619 25175.411871 22023.102058 21777.764329 27304.773560 29817.753678 21990.488328 21470.209689 25239.565804 29667.548693 30904.752986 34773.671623 37452.619776 41634.044390 44375.618576 60080.790191 43238.185910 50235.809013 35680.515933 33003.998356 34146.805186 34203.605942 37292.848203 45082.147773 38616.649858 44754.594194 37967.918442 39836.307297 37049.734176 38097.155540 35809.379958 36213.223242 34557.456437 34604.724793 33216.225154 34065.192241 30978.004779 31507.683949 28102.483431 27520.562713 25596.563838 24539.608244 23935.832508 23131.817256 22879.101093 22429.931688 22038.581148 21775.058619 21249.961644 21069.129150 20509.949849 20470.118028 19781.388006 19914.971452 18982.007541 19222.947834 18076.236479 18323.332609 17114.815687 17323.032144 16179.924771 16374.155520 15312.730992 15522.613258 14502.876351 14720.553475 13727.481296 13923.671258 12981.385608 13138.703204 12273.403474 12398.444857 11607.124300 11716.561509 10972.635552 11075.633885 10354.514746 10449.136151 9743.313453 9824.542137 9138.884230 9206.087923 8545.684568 8602.807561 7967.292852 8018.763515 7404.908849 7452.759993 6859.043181 6903.046914 6331.387161 6370.646681 5825.209173 5859.367201 5344.539406 5374.080317 4893.069780 4919.078993 4473.377770 4497.160271 4086.640333 4109.358762 3732.794452 3755.184292 3411.025388 3433.264333 3120.393443 3142.183275 2860.364999 2881.183901 2631.066421 2650.456276 2433.223047 2450.981186 2267.883808 2284.118691 2136.083985 2151.148512 2038.739046 2052.442922 1977.115874 1989.039564 1951.345121 1963.035380 10854.139053 10819.986618 9875.919073 6826.721285 5924.467849 4558.065440 1215.746842 -1767.259694 -422.006712 2082.966566 -349.774906 -4194.274147 -2620.367084 -479.892620 1096.080791 -2867.937777 -5516.634529 -4469.034268 -6282.085628 -10254.072657 -10029.510911 -9056.200247 -8650.917995 -8127.209755 -7552.519923 -6941.503314 -6308.538435 -5670.110382 -5042.241291 -4438.678599 -3870.074816 -3343.841185 -2864.401296 -2433.644891 -2051.447314 -1716.173819 -1425.127435 -1174.924516 -961.796561 -781.824071 -631.111171 -505.910441 -402.707101 -318.270801 -249.682264 -194.340939 -149.958984 -114.547096 -86.404349 -64.169151 -47.306685 6545.818092 8248.411342 7079.804841 2435.071392 3429.211883 2731.770491 1034.394727 -3567.721867 -1687.788403 3615.331563 324.967012 -4930.182427 -2733.750539 -132.336643 -207.337326 -5980.900922 -6919.028773 -3749.314052 -1606.540000 -6081.665459 -10078.955117 -8922.992666 -8590.154918 -8107.927136 -7544.174504 -6937.745625 -6308.344405 -5673.125949 -5047.973353 -4446.495629 -3879.314994 -3353.894794 -2874.754302 -2443.893079 -2061.292394 -1725.410465 -1433.627102 -1182.619321 -968.664787 -787.877843 -636.386340 -510.458505 -406.588879 -321.551599 -252.428244 -196.616385 -151.823729 -116.050598 -87.555212 -64.746449 -45.687946 2006.564684 2025.333740 2043.703916 2054.007946 2048.532686 2018.727929 1955.402869 1848.444372 1679.728771 1377.725610 936.369251 858.326687 917.493968 857.940670 779.843388 699.289117 619.459979 542.633526 470.450331 403.989961 343.847461 290.226592 243.036332 201.979125 166.624766 136.468236 110.972561 89.599045 71.827615 57.169752 45.176084 35.440206 27.599864 21.336332 16.372550 12.470430 9.427649 7.074149 5.268527 3.894458 2.857250 2.080626 1.503773 1.078699 0.767903 0.542365 0.379828 0.263363 0.180156 0.120376 0.075586 1981.278458 2000.178290 2016.574844 2024.564908 2016.523976 1983.678822 1916.054455 1801.885269 1628.527359 1394.842816 1150.183110 1017.338018 936.793931 858.604930 779.610296 699.342269 619.923984 543.437834 471.493997 405.177103 345.097515 291.477021 244.241964 203.109821 167.662474 137.404074 111.804262 90.328895 72.460879 57.713512 45.638413 35.829582 27.924767 21.604961 16.592635 12.649111 9.571405 7.188762 5.359082 3.965361 2.912268 2.122936 1.536020 1.103056 0.786134 0.555883 0.389753 0.270580 0.185408 0.124669 0.082362 -36.525447 -31.745431 -33.892889 -29.599042 -26.803835 -24.659908 -19.144914 -18.957736 -13.983960 -14.060727 -10.206036 -10.301592 -7.410605 -7.489143 -5.347882 -5.408107 -3.834913 -3.880180 -2.732535 -2.766217 -1.934737 -1.959600 -1.361251 -1.379468 -0.951769 -0.965020 -0.661332 -0.670901 -0.456689 -0.463551 -0.313441 -0.318327 -0.213819 -0.217273 -0.144981 -0.147407 -0.097718 -0.099410 -0.065473 -0.066644 -0.043610 -0.044417 -0.028879 -0.029431 -0.019014 -0.019389 -0.012448 -0.012700 -0.008103 -0.008272 -0.005245 -0.005358 -0.003377 -0.003451 -0.002162 -0.002211 -0.001377 -0.001409 -0.000872 -0.000893 -0.000549 -0.000563 -0.000344 -0.000353 -0.000215 -0.000220 -0.000133 -0.000137 -0.000082 -0.000084 -0.000050 -0.000052 -0.000031 -0.000032 -0.000019 -0.000019 -0.000011 -0.000012 -0.000007 -0.000007 -0.000004 -0.000004 -0.000002 -0.000003 -0.000001 -0.000001 -0.000001 -0.000001 -0.000001 -0.000001 -0.000000 -0.000000 -0.000000 -0.000000 -0.000000 -0.000000 -0.000000 -0.000000 -0.000000 -0.000000 -0.000000 -0.000000 -0.000000 -0.000000 -0.000000 -0.000000 -0.000000 -0.000000 -0.000000 -0.000000 -0.000000 -0.000000 -0.000000 -0.000000 -0.000000 -0.000000 -0.000000 -0.000000 -0.000000 -0.000000 -0.000000 -0.000000 -0.000000 -0.000000 -0.000000 -0.000000 -0.000000 -0.000000 -0.000000 -0.000000 -0.000000 -0.000000 -0.000000 -0.000000 -0.000000 -0.000000 -0.000000 -0.000000 -0.000000 -0.000000 -0.000000 -0.000000 -0.000000 -0.000000 -0.000000 -0.000000 0.000000 0.000000 0.000000 0.000000 0.000000 0.000000 0.000000 0.000000 0.000000 0.000000 0.000000 0.000000 0.000000 0.000000 0.000000 0.000000 0.000000 0.000000 0.000000 0.000000 0.000001 0.000001 0.000001 0.000001 0.000002 0.000002 0.000005 0.000005 0.000009 0.000009 0.000017 0.000017 0.000031 0.000032 0.000058 0.000059 0.000105 0.000108 0.000188 0.000193 0.000332 0.000341 0.000581 0.000595 0.001004 0.001027 0.001712 0.001751 0.002886 0.002947 0.004805 0.004901 0.007911 0.008047 0.012901 0.013025 0.020989 0.020629 0.035278 0.030832 0.050263 0.040962 0.057293 0.046912 6958.015951 8939.773894 8170.776576 8768.294092 6915.555636 5931.105907 6064.949935 6135.724885 5568.100781 5671.417716 4339.152135 8358.963187 8120.597483 10352.472409 11227.805184 -596.662439 7692.824336 7125.161464 5326.517598 5941.363340 3810.013992 6520.620738 10843.199628 6651.590713 10851.990567 10820.589090 8800.723493 6633.543685 5996.730804 4460.110378 5443.936563 3141.678838 9433.939557 14104.643760 10106.140328 11537.783291 10819.722656 6819.895563 8629.405546 8019.632008 6363.004025 12374.437889 9612.697427 6197.156200 14340.150788 9016.943885 13461.706419 12713.973586 12610.115899 8929.125546 11891.562294 8907.935673 5432.872748 6387.700342 8269.953210 16170.425699 14238.641722 12761.012120 13697.301875 11985.979699 11327.198745 12146.987260 11288.966473 8830.027143 5706.825033 10601.979217 12129.058721 12296.526821 12632.673858 16364.463436 9291.670174 15044.605652 12021.146870 15600.690420 13092.273378 16092.360659 9633.027925 17264.430228 14984.991221 14243.783963 15190.144798 16717.583381 10990.638407 15181.125308 13680.700675 10153.283011 10729.824148 10191.186338 14354.626042 17994.556401 17503.121742 13125.090501 17830.681234 16676.910586 14009.596585 16769.910220 13553.905762 11339.545170 11970.215453 18849.103722 20360.604881 19922.704886 16345.662548 13316.341333 19251.570434 14201.823098 13659.197218 12595.235956 8421.074868 9015.888483 17768.268492 16797.935722 18992.626970 12606.641902 16675.128598 13319.954505 16686.103529 11438.685476 10591.999951 7987.908486 9075.247112 22669.022917 17618.372219 19072.680882 20075.255508 16384.580029 12704.951862 11101.459265 13376.498736 9434.499611 11208.142659 10812.903484 22191.120627 16309.248748 16294.517129 14694.668934 16124.304188 14457.590211 12661.072115 12562.176283 11513.010830 12420.058926 8492.670423 17303.725843 21169.978319 17790.680755 18457.667156 20296.324141 13778.346193 14807.395582 14429.213123 14009.586160 6754.884051 6047.948271 19665.591310 18522.270873 20356.549189 16584.289751 16254.861693 17261.715096 12871.314801 13204.845590 7596.820793 7254.407894 5235.137209 22164.955761 20927.477674 17392.378199 14195.026680 14980.901804 9776.493134 10568.584919 11930.282055 2692.179531 2720.763705 -1360.071258 18505.949934 20821.846252 17861.506301 18208.471693 19158.946081 12774.720473 8976.773412 14763.226684 486.350196 1766.504090 166.812879 23696.578426 18294.830957 18945.617353 15853.868759 11540.907812 7502.607954 10669.485026 4676.451202 5840.888138 -143.609167 2328.221134 21618.822130 20473.890642 17865.115218 18488.053558 14383.950527 17544.140419 6280.598765 5902.739529 6615.225903 2840.583914 3537.273328 21975.977333 23092.221920 19392.150260 17947.631617 12703.634780 15636.703792 7598.345924 1835.395224 2210.768236 3782.538079 734.990939 23266.901658 21520.269299 22321.090551 14966.628077 13556.185120 9451.784570 10309.491460 1848.226731 -1821.681300 258.542815 1880.726335 21684.870982 21135.411850 19676.261959 20371.656907 15036.749996 8126.768682 5147.315782 3265.242140 5936.550644 6584.988388 2343.345628 21557.242310 21456.635846 19209.490869 19025.255447 12278.092357 11280.220599 11935.737389 4126.253303 4400.567939 6029.273293 2009.367215 23156.421975 18962.680434 19594.798148 14670.375722 13771.242510 11483.166644 8678.930123 5333.274326 2581.149678 748.325835 -52.673951 22583.888941 21241.438692 19380.031647 16681.848426 16715.873594 10512.377419 7324.598521 4468.259535 3442.070944 4847.316761 927.234765 23747.978306 24426.373897 17440.863983 20137.689352 19614.348483 12054.257544 10460.592666 6643.336428 5345.313825 -425.934050 1179.596152 23299.783537 21843.420406 17307.634804 15663.351822 15744.284415 11566.332868 10858.415569 4132.710322 4835.622462 4218.901776 3289.210299 23414.326312 22933.491857 18863.447951 15998.873060 16101.818780 17297.667398 12810.438511 8258.623274 6177.414463 1510.436706 2251.763786 25650.666840 22137.500086 18356.767732 21449.519515 15633.569129 11908.942729 7506.538405 5553.492360 7230.083759 3043.537961 7718.733837 24665.332675 21988.152168 19472.410978 17925.861629 14541.272787 5887.269057 9738.268802 8488.886313 5947.555352 -227.538764 8344.336106 23645.338317 18240.659104 21077.953745 18597.557030 12702.222522 16366.961685 12368.156446 5991.307770 7172.591640 3242.295093 -1149.702223 23792.455647 21086.679981 20388.885211 22975.705093 18549.010669 12621.448295 9158.884648 8911.199361 -275.248332 5553.425936 -2304.312384 24442.295040 22384.927997 20521.517250 18390.519419 12754.745322 14626.344011 10142.384500 11985.886499 3051.169692 7870.606326 -1690.124420 25376.541921 20170.664123 20679.511075 14805.404910 16195.572477 12610.579807 13100.422256 7583.281251 5810.452158 5496.986708 -990.113641 26579.482348 20573.312389 18091.967768 18647.561898 16353.873047 13037.097857 13511.001204 11837.329562 6757.877854 5904.574606 -60.059522 23032.798044 19832.732452 21415.486855 20816.642562 16515.901184 17993.167257 11670.464965 7695.687869 2731.682055 7773.232667 3919.165860 22253.997260 26140.750690 17722.285194 17042.856988 13683.001491 12270.541939 12748.508250 10782.608734 5784.866584 4333.962635 -2496.872000 28905.641467 21780.333461 21088.134429 12911.372512 18190.772956 13619.543704 9555.433377 12033.842328 4008.857660 4692.379414 4264.915141 46648.121856 28006.048313 19951.410498 20111.856265 13712.103696 16540.952850 7323.899809 5992.450353 7346.625128 3212.062718 -935.548741 32048.928594 29126.475606 21115.414637 21103.620160 16906.571935 15692.927665 10780.402672 6433.674174 7037.884920 1105.768329 -1106.585982 13116.181599 30322.736975 23183.237198 21805.179759 18409.975099 13210.875060 9987.954448 11043.730008 3149.915828 5134.924419 -2517.349934 25020.288590 21020.947476 19999.173889 20437.939164 16262.869266 13443.804997 12084.041470 10900.533247 7256.959364 4833.108885 3455.028985 23524.045704 15641.392265 27273.347639 21210.187151 16032.945296 17117.065647 11514.717344 9104.828275 7312.350266 3989.059026 1180.014570 11295.256910 11692.382841 22440.805319 21156.932666 16368.192922 15591.560356 12429.771087 10107.532158 10003.328882 5701.333999 2404.851054 21376.723623 21412.682599 23027.087236 24754.569492 18139.033371 15904.725935 13658.981068 8636.189797 3161.123649 4622.328321 785.181883 17138.644045 23343.346671 25465.256797 19033.242935 17843.459886 15715.440847 16180.613963 7860.380729 8773.017162 3324.975441 -1029.094458 -330.944388 3434.932658 2209.719001 20208.383889 21294.825411 21053.138249 18178.140863 10079.745705 3557.074291 7057.507268 4291.851002 -5923.888117 3690.520463 2069.418187 22065.119518 22284.679676 17215.330293 12936.244833 15207.050130 12013.659720 9713.161977 6848.709181 8997.375811 3437.613419 9016.848066 6385.140076 11604.345707 19400.980122 13662.099607 12890.740957 9507.449103 6718.211671 -2066.388420 -3602.419114 17720.065959 3228.511131 24432.861066 20012.311464 19912.900041 11661.909348 9530.531724 7784.547100 5435.579470 3337.551470 5460.472874 -10985.897096 2282.738902 18133.933582 19413.895334 20252.042205 12157.157139 9233.872980 9140.247875 7327.660731 9544.732382 13816.479217 3458.688609 7629.022898 11969.173736 25415.517248 16851.768131 19028.251718 12127.045806 12151.943269 8542.922889 -2902.803408 38348.469949 1002.388300 8047.526181 9705.465849 19463.118239 18652.833519 18084.407232 12613.774874 11657.139334 6177.913406 -4581.788085 39171.358293 -3620.464757 9662.031892 21905.559088 17052.743166 17082.507948 12494.849233 11349.251156 6908.733518 7040.064392 4013.266204 33613.473490 5742.678854 11881.100980 12406.597551 8313.606591 20420.705993 13707.910699 14705.978301 7886.946902 8330.361477 12793.160911 39965.783271 17584.797388 9374.188790 12575.531898 21116.386377 15856.694811 17645.254043 13792.412240 6887.936739 8276.939774 4444.311915 35218.808922 14331.274289 35112.026699 9597.046705 26002.222212 17166.426951 15225.462973 15130.820130 13772.567501 3458.942767 -164.564214 33765.947213 26513.494760 11979.455372 19787.622101 12861.925917 19158.848465 18271.754505 9268.315109 9286.000597 8523.841568 4336.254609 38968.521281 49738.069741 9200.565131 -3076.521820 19720.051279 24775.923891 13558.198711 16674.266553 9040.261149 7058.371315 1411.638235 34647.942705 39346.765934 -5206.163145 524.255496 1836.467670 20929.199532 22683.275138 12153.846243 11207.164285 10469.661255 3653.733393 25350.572091 19425.452938 -1221.708064 5146.036417 9350.437111 19186.344495 18497.538791 16618.985240 10093.932171 4416.411466 -770.443954 21622.998031 17432.218820 12265.569933 13485.991284 13363.546043 15349.419789 15461.132248 11150.170053 14522.261258 7658.446099 2992.332692 21803.738805 24890.844667 30931.272243 10284.090677 11694.986056 8766.062064 10677.124944 19721.248142 8458.920715 7212.325673 5970.591196 22017.489188 24790.997087 37124.817895 35845.599444 7024.171514 9923.496774 21288.761517 13693.313570 14434.154262 7731.946947 8945.832166 21487.935788 22905.671395 23454.611146 -2752.746140 6007.116066 4174.974195 20701.602150 15614.625787 7561.874254 8680.415821 -1902.871125 20583.166674 19820.895552 18601.761584 8066.264817 2744.522788 15511.417483 16669.730945 15799.885178 13535.740764 1851.517505 4861.631133 20314.908589 20199.248166 20627.179992 14633.185146 15057.972312 16999.679291 14398.646148 16203.074796 10068.947062 13842.117666 13286.722614 20251.102510 21131.552596 24518.149234 28033.574435 30204.242250 15034.238384 12262.718098 16445.297067 6853.926141 6148.845433 4740.249851 19858.713821 21410.682312 26274.758580 33679.620414 17047.773167 -290.399473 13280.606245 9950.249570 8624.083948 11956.322352 999.811861 18916.097503 20047.089621 23060.171497 22432.670893 -10514.905440 4561.764601 5949.769860 9883.035054 14653.995820 13721.031792 10952.775147 17744.376454 18182.228601 18450.141997 17326.161438 6583.150900 2956.438036 6669.694307 7484.523447 8983.891819 7067.122772 7790.113974 16761.430229 17181.834908 17452.812078 17305.203137 13469.182176 13245.631211 9035.709800 12597.329456 15970.010685 10611.251548 7542.949661 15990.294753 16753.122543 18156.949051 22181.910065 23117.500078 22442.921702 14057.030319 11896.300049 11789.501503 6128.002623 7035.351290 15230.868776 16157.380538 18037.634670 23044.066502 30569.057189 22863.134213 11791.360993 10462.653634 11170.254545 8534.433355 2930.596868 14374.092233 15148.318957 16569.487816 20558.898062 22311.473598 -10172.093632 3621.544828 13007.926177 1781.574499 7775.277283 9913.922279 13475.868522 13945.910374 14424.653520 14820.045669 13303.765037 2605.104178 3330.722046 1682.074723 7835.534230 8651.146542 7833.541170 12653.559869 12958.756924 13154.164760 12892.170004 11841.303459 11077.213302 11155.160731 6604.406480 9963.094097 11356.264888 3079.407232 11947.483855 12267.234392 12687.162924 13257.589915 13960.699015 15339.279878 10057.285242 7610.410129 4711.321203 5519.271960 8319.474397 11305.416378 11676.304479 12319.401073 13610.451346 16878.318370 23772.170308 11221.401860 13401.083900 6787.670774 4304.387707 5040.055322 10662.174543 11010.113659 11600.377647 12680.110930 15721.600643 17547.464433 -11181.308462 2080.695042 12118.868422 4938.033979 4767.700111 10000.247933 10258.840239 10601.395874 10906.859988 11022.477458 9974.819604 1487.043306 1654.873273 2922.516437 7908.532540 6978.420788 9343.469708 9519.521391 9685.569033 9673.848817 9188.963121 7995.667593 4643.418072 6892.209833 2227.499774 5427.185649 4172.956319 8716.292627 8856.067970 8990.517930 9054.378232 8975.013901 8772.113860 7322.609682 4857.569769 5171.895630 4136.379117 6285.175899 8122.054792 8258.379906 8428.740914 8662.023785 9117.481930 10546.970107 12421.746227 4747.229630 4298.913206 4222.847635 3282.972869 7550.467050 7687.100191 7877.264109 8166.617236 8690.029375 10290.731811 11146.481652 -2473.029941 4361.974557 4300.966868 4632.370805 6993.034552 7119.079996 7290.231098 7516.327011 7774.910274 8028.476109 7541.713324 2433.990328 2487.323475 1767.771449 3802.608295 6449.746007 6556.494164 6691.345815 6843.249532 6977.899092 7120.774126 7403.187825 3541.139755 3706.987998 2185.092695 3883.789240 5926.564045 6012.463980 6113.055234 6213.295197 6288.219981 6306.853459 6501.802927 5473.176687 1844.292360 1716.180350 1979.121729 5430.716606 5499.022482 5573.529392 5640.274971 5687.676991 5730.913652 6163.364971 5903.461888 4084.454613 1579.639319 3253.426224 4967.909405 5023.905181 5081.036449 5124.090629 5133.931625 5081.176270 5033.665004 4364.103194 1637.922438 1564.802730 3109.604879 4541.406028 4591.012926 4640.344458 4673.326818 4663.510752 4557.774962 4272.805063 3695.663205 2001.883530 1214.178792 2376.406376 4151.883159 4200.473836 4251.606370 4292.662706 4303.031814 4244.376514 4047.299729 3635.367990 2784.406294 2434.441598 2485.837274 3797.766799 3848.647353 3907.679276 3969.232506 4028.054815 4080.092827 4115.572612 3933.037697 3589.605744 3470.684232 1675.438665 3476.218845 3529.631022 3596.339723 3676.967335 3780.377000 3939.215717 4257.502258 5060.930241 6322.062392 1995.851364 2002.837459 3184.570760 3238.121495 3306.769704 3392.705659 3506.358037 3680.263400 4005.636034 4964.623855 6180.102822 1458.799135 526.115157 2921.524506 2971.868679 3035.269931 3110.963614 3199.774489 3302.128717 3394.855305 3425.610704 2876.382842 217.158921 1289.151100 2687.517455 2732.126986 2785.634313 2843.319982 2896.791325 2926.175264 2876.773219 2622.209378 1929.694034 571.341492 853.847832 2484.242845 2522.220288 2564.881831 2605.239318 2631.876955 2624.903592 2552.197580 2381.976939 2191.187444 1724.290625 2184.678183 2313.845385 2345.717965 2379.010756 2406.348771 2417.357098 2398.357245 2335.900212 2229.178630 2146.630474 1772.472277 2006.721012 2178.354025 2205.453405 2231.561471 2249.944642 2252.000514 2228.161905 2171.217277 2082.048777 2009.324639 1755.125545 1509.332942 2079.785236 2103.528100 2124.187103 2136.378694 2132.442152 2104.040303 2043.675706 1945.326434 1819.779483 1614.311166 1079.233656 2019.912883 7624.486064 3036.968122 6091.777047 4515.863570 4099.869814 4053.642936 3407.997252 -151.150223 2193.997217 593.283725 636.028272 1472.262369 -13031.070208 5050.123194 -258.028879 6766.551214 4249.964726 2925.074461 4896.109811 2140.949134 1769.564378 873.580582 -935.484690 1440.724613 4040.480104 172.214925 -1414.183981 5426.024707 8086.860491 3839.416006 1752.849730 4201.601850 2063.587174 3785.048271 1130.070913 5828.387943 1000.950263 793.005098 2820.916863 1623.991734 -653.415152 8704.641777 3968.620928 6175.841847 6550.668764 4283.518773 4472.197673 6166.180617 2316.935992 2435.884325 1503.236239 1535.216087 1725.290466 909.055024 -825.804918 11525.550902 9482.050492 9520.093867 3861.952310 5245.098691 8398.190692 7796.674308 2860.289030 3560.414453 1664.577209 -504.343981 1537.804458 477.666337 1733.262027 8657.281926 8559.428695 7698.707398 8545.907379 9199.181965 4081.716541 6544.811294 7602.037013 5847.790174 3592.343951 2402.820515 2905.492433 -713.434007 1789.504928 12992.112667 6589.978483 9811.100881 7186.698076 4342.327359 6091.126608 9681.673688 7928.219563 7179.469909 1164.989337 2374.469800 3378.584301 1793.892765 1617.356349 9486.503609 11669.141745 10259.381944 9356.161387 8536.945630 10217.859878 8370.526052 4514.813835 5979.312657 5286.054185 2109.285556 1597.985082 3792.331599 856.550803 11881.097359 15045.049516 2384.492635 7235.749037 9522.271041 4657.404892 8055.871649 3099.125506 6741.506710 7466.563899 6855.868781 2532.359846 1900.491918 7000.968943 8424.961224 8165.657209 7848.121384 4036.080181 7557.458213 6214.466233 9272.739384 3781.896526 2868.698891 5772.713909 7071.359275 4648.197761 5918.767795 2618.236471 7422.304883 8511.751026 10094.046312 4483.111040 4667.618364 5382.248712 7344.560285 4433.304057 6350.619342 3051.311121 1379.470182 -1265.412417 4456.944079 8157.801139 10793.307508 4021.479097 10190.349544 13118.939169 4432.292729 5094.525922 3900.528556 5363.503390 5508.689223 5141.109304 7854.151727 4204.495305 5071.052624 -1563.311719 4728.153432 7044.178314 1414.131082 7294.701922 3338.887569 2682.152240 8941.308106 7331.768964 9440.755414 7649.007182 2491.504625 4369.488511 2714.291418 10581.236173 -716.476306 3891.966873 280.231197 1188.328096 3412.622714 2904.530156 1963.544390 2501.337770 -2046.473942 -273.552063 2169.097960 1821.593340 2274.331565 2578.964956 6057.189434 6743.777289 825.290453 2349.674906 2170.059080 2508.571267 2254.589057 1670.359006 2259.141887 -121.178137 4110.195600 1785.400386 -921.710456 -1381.136762
</DataArray>
<DataArray type="Float64" Name="Velocity" NumberOfComponents="3" format="ascii">