<VTKFile type="PolyData">
<PolyData>
<Piece NumberOfPoints="1945" NumberOfVerts="1945" NumberOfLines="0" NumberOfStrips="0" NumberOfPolys="0">
<PointData>
<DataArray type="Float64" Name="Pressure" format="ascii">
 30218.296572 24962.796869 21544.545876 17039.364101 20026.099967 16666.930858 25583.152327 20497.844162 25681.775342 17243.141681 23551.970899 16220.095511 23131.052759 16755.402883 22009.616647 15383.480971 23560.863261 17969.486513 22991.829711 16125.826683 23767.653568 17583.887251 21317.615142 16684.025363 23161.713517 19302.200825 26048.846206 23428.715807 23627.288067 21354.497994 28332.806343 27395.871975 27101.294050 27163.382759 25243.994634 26039.782614 29357.749825 29506.767909 32657.073782 35156.674916 29172.074030 29213.098541 35909.227443 35388.074533 34180.552300 33642.848859 33450.374365 32968.936053 37159.197629 37839.256307 35668.327331 35164.395231 34853.413908 34677.723174 35231.240991 36081.801385 35292.726516 36403.354836 35615.547288 37134.415894 35004.141031 36885.205612 34494.485201 36979.344606 34091.671272 36234.348422 34146.044435 36423.488025 34054.701612 36521.169638 33936.825735 35940.288758 33555.445741 35572.671281 33711.762233 34938.750740 34041.307309 34439.928764 34048.745140 34387.348941 32843.946219 32224.097338 33390.238687 33079.868557 34649.129970 34009.968846 37924.349293 36484.062329 41216.344505 38559.412509 44540.470314 40044.951339 42963.771246 39037.181827 39373.502855 36306.139698 39834.901339 37072.012238 43893.463322 39755.577925 48715.542273 48263.790347 46749.491473 42798.517893 36163.018175 30211.693392 29887.963706 26569.090434 30453.419658 32873.480911 31176.210857 35722.090018 29126.454333 32646.822713 25613.504121 27371.933539 23411.179655 25483.650484 22413.033855 25159.409422 21609.170843 24327.541185 20392.530505 22284.092147 18987.378640 19979.176203 17940.083925 18633.101764 17313.836319 18052.624430 16805.045892 17544.875091 16156.707672 16707.403060 15380.133088 15664.155227 14638.916647 14807.593813 14003.610618 14210.744161 13409.947272 13682.193680 12774.792507 13050.108745 12088.367374 12320.499865 11398.706458 11609.479876 10741.394803 10974.288849 10110.585853 10378.252202 9484.452036 9766.893489 8856.495670 9131.748686 8238.380892 8503.129271 7642.579114 7904.820442 7071.060006 7334.342472 6519.172575 6778.265915 5984.377854 6231.864634 5468.971834 5701.489811 4976.635138 5194.550229 4509.034087 4712.801441 4066.013057 4254.381482 3647.802966 3818.867019 3256.281717 3409.214473 2894.329099 3029.970853 2564.333359 2684.645541 2267.131719 2374.389694 2001.810700 2098.081702 1766.113389 1853.045659 1557.077411 1635.853731 1371.670314 1443.050143 1207.306128 1271.753435 1062.165355 1120.042988 935.273581 987.035353 826.361015 872.671327 735.589384 777.354163 663.250293 701.556139 609.732012 644.904119 576.110740 608.188165 563.272040 594.662135 21721.635040 20183.508021 17646.338751 15011.658985 15875.027482 15321.087991 13080.998249 10513.464496 8960.143604 7415.814252 5966.694173 4646.396180 3597.824211 2187.047174 323.002360 -515.983400 678.632932 -138.223245 -3824.112870 -3627.797292 -4451.116526 -7159.112884 -7799.601052 -7045.308173 -6184.686268 -5289.920483 -4431.179257 -3651.773844 -2971.179395 -2391.293005 -1904.786973 -1500.991361 -1168.981154 -898.747036 -681.387496 -508.954582 -374.272813 -270.839829 -192.808697 -135.013061 -92.995424 -63.012849 -42.010307 -27.563934 -17.803026 -11.321586 -7.089154 -4.368090 -2.641735 -1.556765 -0.890999 15613.820535 14240.645076 11729.875131 8682.660958 10116.896009 9313.926474 7767.773962 5895.457048 6120.202236 4810.490914 4159.117764 3373.600095 3329.415072 2411.231662 -179.769014 -2275.001972 -2581.572166 -1468.377482 -5405.741162 -3754.184270 -3843.210466 -6496.013397 -7904.690096 -6949.247940 -6153.943987 -5291.685265 -4446.244448 -3672.141612 -2992.437231 -2411.180247 -1922.421610 -1516.241363 -1182.029140 -909.851089 -690.782974 -516.833935 -380.797103 -276.155797 -197.060319 -138.345439 -95.552859 -64.934013 -43.423025 -28.581123 -18.520454 -11.817441 -7.425026 -4.590770 -2.784796 -1.637390 -0.877777 669.311251 755.879857 866.678808 993.159981 1126.434933 1255.969551 1369.259498 1450.130691 1466.654888 1340.839255 1053.110484 864.155242 768.878822 654.713888 546.714229 449.919907 364.619068 290.780258 228.076146 175.885070 133.327938 99.338396 72.747674 52.367560 37.060252 25.789296 17.650384 11.884016 7.873844 5.135134 3.297536 2.085616 1.299638 0.798159 0.483249 0.288537 0.169948 0.098773 0.056664 0.032095 0.017954 0.009922 0.005418 0.002924 0.001560 0.000823 0.000430 0.000222 0.000113 0.000056 0.000026 656.134874 741.932255 849.048034 970.999167 1098.773925 1221.010519 1322.910027 1383.481416 1372.676977 1263.963468 1081.458007 916.837660 779.616037 657.662871 549.047244 452.164320 366.845395 292.956632 230.149327 177.803099 135.050179 100.839924 74.019882 53.416216 37.902122 26.448276 18.153853 12.259835 8.148190 5.331158 3.434741 2.179765 1.363018 0.840046 0.510443 0.305891 0.180839 0.105499 0.060753 0.034544 0.019399 0.010762 0.005900 0.003197 0.001713 0.000908 0.000476 0.000246 0.000126 0.000063 0.000031 -0.533846 -0.383507 -0.484861 -0.353837 -0.324454 -0.264836 -0.173555 -0.169117 -0.097930 -0.099744 -0.055525 -0.057333 -0.031318 -0.032493 -0.017519 -0.018219 -0.009714 -0.010119 -0.005338 -0.005569 -0.002908 -0.003039 -0.001571 -0.001644 -0.000842 -0.000882 -0.000447 -0.000469 -0.000236 -0.000248 -0.000123 -0.000130 -0.000064 -0.000068 -0.000033 -0.000035 -0.000017 -0.000018 -0.000009 -0.000009 -0.000004 -0.000005 -0.000002 -0.000002 -0.000001 -0.000001 -0.000001 -0.000001 -0.000000 -0.000000 -0.000000 -0.000000 -0.000000 -0.000000 -0.000000 -0.000000 -0.000000 -0.000000 -0.000000 -0.000000 -0.000000 -0.000000 -0.000000 -0.000000 -0.000000 -0.000000 -0.000000 -0.000000 -0.000000 -0.000000 -0.000000 -0.000000 -0.000000 -0.000000 -0.000000 -0.000000 -0.000000 -0.000000 -0.000000 -0.000000 -0.000000 -0.000000 -0.000000 -0.000000 -0.000000 -0.000000 -0.000000 -0.000000 -0.000000 -0.000000 -0.000000 -0.000000 -0.000000 -0.000000 -0.000000 -0.000000 -0.000000 -0.000000 -0.000000 -0.000000 -0.000000 -0.000000 -0.000000 -0.000000 -0.000000 -0.000000 -0.000000 -0.000000 -0.000000 -0.000000 -0.000000 -0.000000 -0.000000 -0.000000 -0.000000 -0.000000 -0.000000 -0.000000 -0.000000 -0.000000 -0.000000 -0.000000 -0.000000 -0.000000 -0.000000 -0.000000 -0.000000 -0.000000 -0.000000 -0.000000 -0.000000 -0.000000 -0.000000 -0.000000 -0.000000 -0.000000 -0.000000 -0.000000 -0.000000 -0.000000 -0.000000 -0.000000 -0.000000 -0.000000 -0.000000 -0.000000 -0.000000 -0.000000 -0.000000 -0.000000 -0.000000 -0.000000 -0.000000 -0.000000 -0.000000 -0.000000 -0.000000 -0.000000 -0.000000 -0.000000 -0.000000 -0.000000 -0.000000 -0.000000 -0.000000 -0.000000 -0.000000 -0.000000 -0.000000 -0.000000 -0.000000 -0.000000 -0.000000 -0.000000 -0.000000 -0.000000 -0.000000 -0.000000 -0.000000 -0.000000 -0.000000 -0.000000 -0.000000 -0.000000 0.000000 0.000000 0.000000 0.000000 0.000000 0.000000 0.000000 0.000000 0.000000 0.000000 0.000000 0.000000 0.000000 0.000000 0.000000 0.000000 0.000001 0.000001 0.000002 0.000002 0.000006 0.000004 0.000012 0.000008 0.000015 0.000010 15945.755520 15996.925207 14401.750928 12378.903201 12589.968023 10900.044291 10177.403448 9765.234262 9219.152572 7323.696840 7878.998714 14108.396369 15956.823693 14884.158261 14545.976889 12156.190389 12125.696507 12599.805738 12291.094812 9276.698475 9781.313922 9636.140126 16002.372218 14974.063649 16307.185306 11343.392679 12159.812584 13048.395256 12016.241739 10123.765127 8661.952286 9627.767416 10144.778445 14385.372752 17050.781944 13270.748950 15265.013217 11206.003132 14635.828753 12747.776378 11955.221600 11914.590345 11851.020414 13306.724384 15930.344226 17326.116577 17221.619247 15873.640052 15085.988208 14383.923556 15250.980415 14121.436504 14507.743044 12029.925182 9041.033545 18346.788060 19510.664097 15584.912331 17606.690316 14471.241901 16918.253054 17484.063462 12856.766268 15451.645774 13535.734974 16620.432355 20550.570726 21217.653577 20083.874743 19179.733964 17823.730900 15979.910626 16590.436311 16832.416508 15280.012426 17236.789227 14294.412411 23260.256432 23126.025593 21074.111700 19773.441409 22015.240906 19499.287850 18736.456547 15879.331807 18027.118315 16483.056209 15353.215681 25378.408681 25786.022606 25214.596318 23197.175494 22150.662065 20066.320819 20161.262886 19605.055680 18857.623243 15080.581820 12802.740087 27811.408749 27754.411958 25255.035070 24614.607917 22882.529631 22205.121868 22399.381239 18805.566260 18604.750507 18550.255882 14371.507791 30320.415622 26873.952274 27448.064054 24676.894422 25788.372768 20763.671193 21785.727770 18575.645509 17863.442641 16927.950893 15877.334133 31182.969493 29313.968571 25864.797210 25290.753033 23358.441517 22181.305435 19845.760941 17636.915674 15379.081597 16992.720407 17196.559562 31164.076906 27828.135733 27556.496140 25235.461255 24439.892084 21706.381188 21733.012303 18811.959107 18913.307101 16109.581890 19455.695825 31374.139642 30282.768563 27491.284063 26207.073911 23294.660502 22197.786605 21574.400950 21002.261207 16547.425620 13612.716096 7055.887702 31883.748980 29515.110464 28873.388943 27945.562679 23877.028030 23901.497286 22365.136667 18680.314392 17762.524619 13150.247353 7483.677430 34106.747585 30972.287536 28966.992524 27471.543365 25125.405985 25175.194768 17975.728644 18481.240755 15647.395644 6811.512447 270.415673 33241.885302 32037.065030 29239.162424 29042.374874 26054.931266 25456.280986 17650.602134 18951.842204 9314.751280 3466.108622 -14856.988837 34793.391485 31026.518277 29985.007693 27831.031623 27462.933030 19912.836842 21533.844551 11026.530311 9116.707436 2525.722883 -15084.539337 35058.650246 32313.979328 32002.651338 27956.566422 27479.880885 19751.807027 15131.918691 12421.092688 8766.207118 4494.703832 -12998.960310 35618.751125 33868.968351 31650.647126 29246.014881 23935.883949 21157.714306 15741.913968 8075.393127 9118.750274 601.887439 -10345.513030 35255.120011 34705.392069 30289.487968 30182.507053 22449.817467 21371.143133 17548.412168 7137.024701 6470.736833 -153.111318 -7309.895035 35059.443096 34459.496606 30185.629465 26335.138326 25427.686845 15406.564040 12667.430113 10465.282048 8897.979464 5893.347990 -3663.001341 36307.871531 34311.936294 30411.694453 24890.462552 25514.271700 18641.408860 14685.446795 14495.059009 8830.164699 5775.397480 2425.946545 36534.410552 34483.840329 30041.580339 25002.373049 24017.959898 18700.417178 15131.991434 10107.448147 5651.839589 8219.236953 3492.414928 36829.798567 34151.995271 30661.010259 24844.234592 23696.576188 20169.392384 15371.322567 11526.677293 9904.305096 4969.150302 6721.220627 37210.410587 34018.510394 31077.557354 24947.111204 23420.347436 19179.194153 15741.458293 13859.143622 10779.530802 12423.220636 3977.645439 37467.639527 34260.935791 31084.906832 25644.037621 23258.719423 19722.803974 15672.756569 13846.225881 10784.304355 5602.700998 6462.584121 38151.575977 34734.207133 30928.715326 26872.606024 22862.473756 20930.811346 15616.984596 13977.553422 14384.946073 5877.026828 6786.320459 37922.689238 34822.335947 30804.707985 28045.750669 22683.454536 22219.025498 16535.864766 15324.175172 11468.731631 11718.848920 10135.449847 37032.328128 35146.084723 30631.861908 28722.726048 23163.344535 22172.217203 18599.125873 13993.760566 12634.823295 13913.060245 -624.786842 36703.875182 35083.722121 31113.786985 28964.266457 24533.222856 21472.745600 20148.772979 13192.951386 14591.253560 14771.446263 12784.327782 36299.181394 35211.739577 31625.051940 28728.550386 26097.139247 21470.501300 20853.061001 15593.183303 14445.454688 18078.804540 11182.590607 34782.270325 34951.602300 31813.545862 28709.205953 26895.229588 22225.780834 20868.161954 18188.480327 12612.378912 20804.725840 20107.405006 33482.139891 34861.056041 31691.872712 29224.753830 26885.018027 23248.316033 20571.317903 19759.192041 9659.198053 22533.454370 15735.632525 33774.119634 34982.311633 31387.468868 29691.110599 26819.028465 24261.253488 19478.780955 20273.667359 8037.653741 23522.235405 21301.304305 33390.022032 34614.639076 31342.330867 29781.297885 26340.927418 24754.598734 18982.165573 20193.880966 8140.732024 22942.028830 23494.695596 33727.239982 33836.101581 31374.861183 29895.162336 26143.650502 24747.064887 18382.386738 20299.338124 8773.083284 21068.787762 21603.554051 34262.697731 33903.583426 31323.035163 29731.055460 25916.312731 24487.772153 18700.027201 18944.979678 10480.089877 15840.538575 19925.945445 34871.825829 34227.571453 31097.714460 29788.969091 25623.245852 23617.605651 18800.466224 17781.685132 11056.630879 11332.626068 18179.225681 34419.578185 34595.171285 30514.861302 29609.696132 25147.284164 23351.505016 18616.195247 16576.698541 11584.729233 8528.143772 16751.482965 34388.078757 34426.288337 30549.129451 29148.470409 26055.734566 22314.320268 19312.203109 15286.292070 11821.264980 7350.275180 15426.014029 34261.808370 35801.052681 30007.904765 29316.233148 25224.930535 22736.216423 18795.316955 15300.998522 11741.130247 7564.236435 14093.860815 36414.718704 33898.213434 30265.681176 29949.458408 25083.890603 22895.646408 19345.586173 14570.527820 11910.475361 7268.636123 12692.398280 34028.168790 35099.437775 30409.069085 28631.075004 24565.508734 21534.912169 19028.507103 14852.164159 11892.270325 7243.793255 10757.256220 35439.210141 34425.568548 29489.219572 27207.215632 24953.557165 21711.239766 18899.176792 15399.312675 10866.906552 8608.029877 8280.458949 33335.115267 31650.746722 30291.067184 27717.327884 24274.431013 20218.269446 18868.747735 15293.846906 10924.529040 7953.720013 7176.317671 34338.088238 32084.563444 28046.588901 26084.958920 24405.001991 21877.701401 17451.390911 15107.727343 11209.371345 6792.649782 7008.964580 30545.065798 29471.518448 28333.458377 24434.890241 24268.168164 21607.874507 16588.961784 14993.699611 9898.133175 7635.219375 5710.501740 27715.949836 17431.890603 25788.095960 25129.160190 23098.413464 20770.094088 17129.222923 14348.903432 10409.095985 6986.086089 5363.741235 17179.045017 17764.873167 17833.394661 23323.347334 22640.008256 20540.444159 16806.808424 13550.338947 10198.137130 5522.615664 5678.866467 13822.311009 13545.415472 18886.997138 23297.536341 21742.759248 19275.506021 15795.886127 13081.648729 9735.017186 6588.459251 4463.736480 21315.843103 21914.416098 26016.784984 24620.098112 22652.627033 18267.055303 16237.179709 12658.586070 8996.192350 6758.741360 4001.117574 33912.917128 30641.206898 27456.337868 26062.073614 21878.713069 19063.300540 15112.307441 12866.936815 8563.480950 5523.346787 4524.077386 39857.951154 29389.374575 19403.237025 22199.759672 21199.749290 20015.658015 15072.062430 13102.964647 8360.605106 6464.500744 4081.778753 27822.985913 10163.693509 11440.616034 17561.811105 20889.539256 19316.526540 15610.412434 12512.633519 8971.159127 6577.179039 3829.806589 23632.072074 15004.227708 15415.601870 19601.004317 20158.411672 19478.573721 15190.262071 13210.922884 9136.728700 5991.499982 4817.246089 27540.374308 23869.270890 20399.263408 22185.737091 21209.469595 19328.023944 15756.792753 13402.680655 8998.557821 6481.609632 4793.519433 30365.416442 32537.365971 28696.702283 24255.175344 23064.447817 17898.800335 17055.021527 12268.721348 9765.057905 6939.597030 3894.027187 30136.521140 36143.444092 25971.990967 16914.208763 19980.835144 19240.956695 17060.326997 12217.279859 9781.677385 6172.603351 4421.276363 25579.825958 23416.043423 7788.171556 9521.026290 13139.246849 18963.242805 15937.154077 12985.933165 9101.124504 6255.390366 4404.089640 21093.833838 19369.031637 13168.552112 12568.770141 16055.646668 17678.739762 15040.933679 11761.771646 8498.543909 6182.690352 3701.168323 20315.581668 22451.249465 21016.132846 17634.159519 17307.168285 16656.824535 14926.506930 11082.487119 8908.782528 5767.453863 3714.987138 20271.400337 24216.795872 26741.907776 23164.907281 18826.185953 17001.289116 13053.944103 11570.007446 7554.060805 5209.292026 3908.894829 19936.297032 24678.019220 29062.166549 21101.106748 13294.020492 14626.664617 13411.197842 11500.674808 7318.440101 5502.909604 3138.248209 18447.697904 21323.766102 18519.317039 4146.463984 6659.671716 9518.786720 13306.598512 10531.859465 7883.362848 5141.363991 3007.672918 16436.912840 17174.976709 15691.585004 8864.411752 8651.242466 11362.207577 12913.765799 9391.502660 6681.556826 4520.479889 3336.561648 15330.838497 16190.426876 17112.984735 15199.991941 12993.680357 12134.891084 11049.016456 9558.799899 6486.424654 5045.045912 3024.603754 14896.172633 16330.925334 18830.105432 20164.107686 17154.089481 12665.449731 11805.661025 8626.913519 6956.295090 4177.360240 2621.272327 14532.077876 16467.383757 20320.999544 23686.435786 15665.043496 10101.937323 10047.808095 9034.933946 6581.551275 4014.183414 3006.435146 13814.620244 15369.400899 17840.347373 15140.182132 1997.273528 5156.940541 7237.201608 8734.744850 6059.617726 4245.254549 2918.548829 12849.585380 13555.096614 13921.591210 11940.050116 5842.945866 5653.729054 8107.822517 8487.651753 5601.915755 3803.758701 2210.989486 12037.531500 12532.069542 12906.689601 12799.558461 10953.835599 9805.276449 8835.194631 7174.081325 5256.231581 3737.748539 2385.844234 11469.176088 12208.594739 13361.701038 15016.914696 16038.398429 12387.308785 8897.729467 7699.794473 5505.464870 4138.339718 2235.940946 10971.527097 11974.426156 13866.111541 17339.299433 20236.316698 11381.292898 7410.505824 6897.428028 6136.775919 3976.568535 1772.650423 10379.918808 11366.083587 13021.017807 15363.148789 12984.341892 782.203948 4654.032788 5373.742049 5876.014050 3786.925994 1961.768130 9695.678985 10468.705345 11317.216558 11536.985378 9270.046045 4033.667061 3968.080044 6160.895339 5275.989460 3239.811320 2296.450248 9026.842193 9687.449307 10320.596292 10546.589424 9922.171770 8173.073951 7747.850256 6537.047577 4379.115711 3255.423450 2118.630280 8429.761591 9132.129129 9992.545481 11017.320744 12174.693127 12609.724606 9260.873677 6702.252009 4756.700459 3700.452873 2376.807132 7874.875486 8650.590128 9760.747101 11546.490334 14614.888630 17137.587280 8421.262904 6093.062195 4493.903156 3716.957721 2656.420157 7314.689749 8090.460535 9183.120636 10783.998897 12930.263729 11093.490351 -140.633219 3454.164650 4211.070373 4009.679272 2410.072188 6740.231564 7449.046598 8335.206166 9207.391218 9332.479180 6997.013651 2826.925265 2859.498414 4655.518851 3749.061111 1842.714822 6175.499738 6819.390653 7578.095369 8252.149831 8444.353232 7810.775551 6723.741637 6279.589353 4907.458280 2937.398028 1863.837364 5640.014952 6250.769397 7004.432428 7834.480312 8695.863365 9507.970503 9747.388224 6355.405849 4233.414976 2963.674493 2291.438530 5132.944125 5722.371509 6495.745414 7488.257692 8905.955766 11159.199109 12484.382738 5881.245959 3572.632876 3092.006480 2055.810675 4644.956675 5198.764413 5939.160847 6905.388069 8235.203132 9988.111312 9217.291172 1541.979384 2569.685759 2939.739148 2322.102347 4173.382971 4672.948111 5329.225234 6133.020591 7017.866528 7558.395006 6384.038993 2350.197990 2757.193711 3526.199000 2002.218446 3724.921441 4164.082866 4728.518048 5392.995704 6111.733678 6841.354642 7172.963730 5206.287970 4734.883174 3839.089389 1638.570308 3308.981817 3693.102167 4181.569945 4752.976619 5386.472787 6077.867947 6711.758740 5832.908678 3114.577020 3706.175536 1713.458806 2931.715818 3270.039146 3699.096864 4201.502905 4763.201789 5380.659233 6040.384092 5841.184721 5229.876311 3019.969598 1652.879155 2594.669715 2895.772363 3277.303623 3721.963994 4207.496398 4694.493999 5087.677334 4979.555976 4092.854936 3255.395579 1580.400109 2296.053886 2566.900017 2910.308654 3308.738911 3734.610037 4137.688198 4427.768234 4406.412752 3605.144090 2672.192757 1966.918200 2032.223626 2278.240557 2591.693533 2957.686356 3352.694812 3734.828991 4021.816748 4046.357441 3575.763877 3433.469693 2086.117664 1798.697428 2023.557854 2312.758913 2656.701081 3043.520439 3458.302116 3874.540826 4177.981218 3946.410657 3510.583035 1913.913243 1590.998749 1796.392226 2063.105658 2386.569593 2766.600012 3219.123728 3811.683864 4632.540275 5120.509971 2768.370338 1681.562302 1405.501775 1591.567136 1834.158695 2130.437153 2482.795463 2911.359426 3489.973556 4347.434234 4657.186750 2366.608854 1434.592075 1240.051916 1406.519948 1622.668140 1883.947120 2186.194607 2525.127046 2879.233227 3123.088649 2784.962533 1550.774299 1698.955238 1094.048034 1241.405304 1430.833947 1655.228783 1903.706264 2155.648747 2362.633552 2419.531978 2213.570026 1916.473239 1766.016423 967.997878 1097.976223 1263.168655 1455.178189 1661.183947 1860.404917 2019.624057 2095.437698 2055.505787 1974.094888 1896.273629 862.904954 978.263622 1123.397635 1290.069622 1466.878934 1638.850124 1789.897208 1912.616290 2010.262755 2059.646442 1973.122780 779.890373 883.940842 1013.512111 1161.310330 1317.904058 1472.727634 1618.279613 1761.319504 1937.589080 2117.628350 2172.948546 720.477075 816.474361 934.347431 1068.397228 1210.063691 1349.778625 1479.073535 1592.764863 1683.975945 1680.859125 1425.196726 7793.945873 7257.796953 6088.037458 5830.119190 5469.014667 5118.369387 4538.568585 3825.675147 3450.146025 2840.336342 2961.848726 1588.012827 -207.472916 -7263.854040 8986.233254 6857.619543 6199.225112 7433.673689 6856.525169 6435.176391 5864.441411 5067.049174 4757.137845 3124.612642 2337.008360 1097.112509 -53.089346 2369.399829 8113.025126 8962.288078 9240.445412 8538.192122 8291.841979 7517.731199 6805.008762 4788.266338 3795.910349 3483.819105 2295.622297 1760.794999 764.850850 727.218522 12403.866422 12118.221610 10446.276309 9866.843435 8909.341735 7137.126659 6233.899448 5628.434087 4577.400577 3396.925926 2729.170358 1384.756879 266.411856 545.265193 15761.666131 13466.222653 11245.726135 10354.000101 9108.902055 8451.869212 7605.097012 6106.163103 4864.309309 4054.607103 2986.418023 1802.604808 721.421139 580.432104 13576.230133 12919.570054 9751.435312 10949.482211 9325.314469 8302.940014 7762.730289 6834.840042 5605.195615 3948.998979 2889.081205 1626.554843 598.078920 600.553572 14361.876197 10520.591926 12752.188312 14626.258087 11663.047649 10603.210221 9498.791347 7650.839361 6194.886883 5224.791685 3961.634431 2473.133371 1300.492264 1041.984297 15181.556063 13495.044215 14948.104524 13215.873527 11322.302198 10218.387319 8804.429304 8360.728326 7158.152284 5272.174535 3843.131422 2141.187087 846.094205 834.491261 15056.026351 14548.970803 11981.259946 12044.776763 11757.311767 10216.783662 10200.475660 8563.114597 7063.337823 6094.282158 4434.762166 2692.285444 1591.767211 1304.815467 13551.130633 14348.956314 12944.203779 14903.896064 13338.455993 11608.135700 11578.241578 9344.000011 8261.841832 7235.023414 5292.989244 2695.828793 1339.751273 1167.719887 14240.515603 15459.218175 12828.463699 12947.162855 11920.575897 11046.320448 11159.007992 9561.022404 9230.036425 7622.954987 5328.620730 2618.927622 1872.411787 2025.655014 18305.205442 13571.899496 13341.673627 13714.636846 11632.270341 10069.020111 7774.534706 10543.852203 9125.231152 6611.550693 5846.929243 2889.560607 2885.028470 2893.979995 10161.330019 11868.141419 1076.265223 12374.889105 11840.518447 9741.654368 11429.266244 9813.670031 6574.965965 5573.761988 5697.954844 5702.462416 3770.980813 3175.480292 2811.993607 5980.746638 4369.787093 9022.425580 5808.280908 2848.637341 8207.485207 8880.986576 5063.025064 7187.206030 5549.794488 6434.196657 5003.040440 3827.288438 2640.093329 -2983.523683 -381.145952 210.414200 -1457.706198 366.962046 -297.612206 3656.780074 5945.122114 3019.530871 6665.754148 5805.791114 4078.846984 7226.123096
</DataArray>
<DataArray type="Float64" Name="Velocity" NumberOfComponents="3" format="ascii">