<VTKFile type="PolyData">
<PolyData>
<Piece NumberOfPoints="1945" NumberOfVerts="1945" NumberOfLines="0" NumberOfStrips="0" NumberOfPolys="0">
<PointData>
<DataArray type="Float64" Name="Pressure" format="ascii">
 37464.280119 42082.137296 53623.327943 56425.196525 56580.008704 58490.826757 45254.683653 48986.686614 43537.673925 49047.136376 44099.171484 51802.173590 44197.979536 50171.080625 44442.507657 50566.580048 45738.901028 57296.530462 42856.709112 52685.584442 45655.418896 52918.060242 46575.354486 53719.755481 45412.246596 51619.639542 49070.482650 54051.926214 42987.216758 45837.913274 41701.219570 42770.262582 41702.070885 42706.808449 38987.130425 37820.960648 39046.141003 36404.167846 37571.653157 33321.883171 36879.111923 32343.934470 36828.584509 33759.043466 35457.915972 32986.444223 33652.950422 30873.096587 31607.237689 28064.197815 29671.586210 24827.097531 28258.872395 22355.341672 27338.542929 21234.129699 26621.497645 21098.059452 25608.106773 20809.391531 24330.399239 19912.148357 23019.153688 19465.377047 21718.382555 18979.701150 20221.621456 18201.064091 18483.328985 16678.378096 16733.424482 14842.947329 15059.106323 12995.486113 13670.411021 11433.993511 12507.811005 9861.874748 11556.754633 8410.705366 10831.998793 7071.632416 10326.749700 5871.569281 10051.103788 4863.438999 10005.136715 4244.010013 10205.990860 3912.897376 10350.085503 3542.739788 10739.097121 2986.693440 12157.279283 4131.859752 14590.122189 6043.519460 17292.668295 5474.179428 23495.685624 16600.343873 25106.039559 16683.686727 21342.011572 11191.805385 22260.496259 12362.059573 25593.235590 19312.657695 28677.801336 27504.306373 28603.361692 28259.596540 26373.060693 23878.842803 24769.191214 22564.493430 24074.766730 23603.111059 23358.893267 24095.080293 21997.441060 22752.359455 20253.106599 20520.298337 18746.537732 18985.828316 17618.912617 18176.476018 16621.847072 17398.241550 15535.737011 16250.954242 14387.883480 14923.715214 13328.948378 13806.049594 12413.602650 12945.936457 11581.651215 12168.514081 10761.610258 11335.141712 9945.043622 10463.180738 9169.251929 9650.563499 8458.205629 8934.748042 7801.714901 8279.640148 7177.892125 7640.408452 6578.667084 7010.836543 6011.470098 6414.290281 5484.121160 5866.456076 4995.021872 5360.778257 4536.659300 4881.976154 4103.842426 4423.179192 3696.750558 3988.642960 3317.735470 3584.606977 2967.391090 3211.897421 2643.959440 2866.723127 2345.322535 2545.610402 2070.715798 2248.312381 1820.686297 1976.891773 1595.917432 1733.237232 1396.180673 1517.480171 1220.025145 1327.875723 1065.074114 1161.478111 928.561333 1014.934174 807.849003 885.127804 700.811878 769.633494 606.038634 666.949833 522.836727 576.479085 451.075154 498.293287 390.941945 432.808870 342.699482 380.457465 306.700905 340.872620 283.977840 314.840151 275.667310 305.687850 39617.383981 37483.525121 33386.672142 32928.142701 29809.107472 24799.639606 21210.763568 18194.830262 15530.839703 12809.729151 10701.248675 8661.200462 6904.423614 5732.170142 4146.517425 2801.819241 1949.883125 5964.852579 1860.362695 -4654.758774 -907.253677 -2176.121769 -7909.777305 -6915.014705 -5343.970690 -4326.129405 -3552.123715 -2904.738573 -2347.724119 -1867.033009 -1456.391001 -1111.848947 -829.428712 -604.055392 -429.314543 -297.783719 -201.658064 -133.405596 -86.275231 -54.587112 -33.816935 -20.528850 -12.221311 -7.140299 -4.096995 -2.310180 -1.280812 -0.698294 -0.373837 -0.195221 -0.098694 43356.587045 43805.504857 41815.212751 45486.249346 42408.070780 34813.533525 31712.588488 28178.815038 23849.981390 19674.599249 16819.261213 13300.838330 9410.929391 7458.101550 3734.221385 1789.515459 -2546.519349 9611.412416 -2665.739829 -15550.078378 207.746196 -2475.276984 -10275.844547 -7365.462378 -5263.868235 -4349.532950 -3577.649084 -2925.167931 -2364.679625 -1882.080975 -1470.250228 -1124.697947 -841.166281 -614.482032 -438.258093 -305.169956 -207.529505 -137.902911 -89.600518 -56.965412 -35.465746 -21.639063 -12.948710 -7.604811 -4.386553 -2.486605 -1.385991 -0.759659 -0.408708 -0.213408 -0.100471 375.741661 465.422799 584.677099 727.356402 886.014467 1050.264694 1206.116617 1334.229581 1397.752025 1282.730270 886.086145 726.503368 711.189429 598.648893 484.846106 383.431042 296.042176 223.113560 164.133948 117.881122 82.680179 56.657271 37.951282 24.863129 15.940414 10.007399 6.155829 3.712449 2.196364 1.275479 0.727472 0.407731 0.224688 0.121803 0.064987 0.034142 0.017670 0.009013 0.004533 0.002249 0.001101 0.000532 0.000254 0.000120 0.000056 0.000026 0.000012 0.000005 0.000002 0.000001 0.000000 366.787027 455.404648 570.728953 708.350743 860.575780 1016.043795 1158.197542 1261.961175 1289.832060 1202.566681 1015.737513 860.275213 727.777630 601.351977 487.314539 386.098925 298.823678 225.843607 166.666829 120.115289 84.562936 58.179214 39.135382 25.752332 16.586515 10.462608 6.467392 3.919952 2.331040 1.360774 0.780249 0.439672 0.243613 0.132791 0.071244 0.037640 0.019591 0.010050 0.005083 0.002536 0.001249 0.000607 0.000291 0.000138 0.000065 0.000030 0.000014 0.000006 0.000003 0.000001 0.000001 -0.052400 -0.033452 -0.047857 -0.031276 -0.029916 -0.022569 -0.013880 -0.013334 -0.006922 -0.007096 -0.003490 -0.003656 -0.001756 -0.001853 -0.000877 -0.000929 -0.000434 -0.000461 -0.000213 -0.000227 -0.000104 -0.000111 -0.000050 -0.000054 -0.000024 -0.000026 -0.000011 -0.000012 -0.000005 -0.000006 -0.000003 -0.000003 -0.000001 -0.000001 -0.000001 -0.000001 -0.000000 -0.000000 -0.000000 -0.000000 -0.000000 -0.000000 -0.000000 -0.000000 -0.000000 -0.000000 -0.000000 -0.000000 -0.000000 -0.000000 -0.000000 -0.000000 -0.000000 -0.000000 -0.000000 -0.000000 -0.000000 -0.000000 -0.000000 -0.000000 -0.000000 -0.000000 -0.000000 -0.000000 -0.000000 -0.000000 -0.000000 -0.000000 -0.000000 -0.000000 -0.000000 -0.000000 -0.000000 -0.000000 -0.000000 -0.000000 -0.000000 -0.000000 -0.000000 -0.000000 -0.000000 -0.000000 -0.000000 -0.000000 -0.000000 -0.000000 -0.000000 -0.000000 -0.000000 -0.000000 -0.000000 -0.000000 -0.000000 -0.000000 -0.000000 -0.000000 -0.000000 -0.000000 -0.000000 -0.000000 -0.000000 -0.000000 -0.000000 -0.000000 -0.000000 -0.000000 -0.000000 -0.000000 -0.000000 -0.000000 -0.000000 -0.000000 -0.000000 -0.000000 -0.000000 -0.000000 -0.000000 -0.000000 -0.000000 -0.000000 -0.000000 -0.000000 -0.000000 -0.000000 -0.000000 -0.000000 -0.000000 -0.000000 -0.000000 -0.000000 -0.000000 -0.000000 -0.000000 -0.000000 -0.000000 -0.000000 -0.000000 -0.000000 -0.000000 -0.000000 -0.000000 -0.000000 -0.000000 -0.000000 -0.000000 -0.000000 -0.000000 -0.000000 -0.000000 -0.000000 -0.000000 -0.000000 -0.000000 -0.000000 -0.000000 -0.000000 -0.000000 -0.000000 -0.000000 -0.000000 -0.000000 -0.000000 -0.000000 -0.000000 -0.000000 -0.000000 -0.000000 -0.000000 -0.000000 -0.000000 -0.000000 -0.000000 -0.000000 -0.000000 -0.000000 -0.000000 -0.000000 -0.000000 -0.000000 -0.000000 -0.000000 -0.000000 -0.000000 -0.000000 -0.000000 -0.000000 -0.000000 -0.000000 -0.000000 -0.000000 -0.000000 -0.000000 -0.000000 -0.000000 -0.000000 0.000000 0.000000 0.000000 0.000000 0.000000 0.000000 0.000000 0.000000 0.000000 0.000000 0.000000 0.000000 0.000000 0.000000 0.000000 53878.919349 48417.533376 46581.980415 47000.898289 46999.463732 39584.822867 41884.958317 41529.455570 39776.170357 37192.632334 35741.520505 44320.562317 45347.333954 50283.956448 50261.018312 46857.809252 46571.031411 41232.205050 41003.119218 37573.722933 37008.096481 32457.651194 49462.890877 49063.933346 49273.056631 42526.647126 43321.040147 41844.917268 42018.117281 39375.150215 38281.217128 34646.363063 33036.476809 49683.013871 50598.153752 47823.014921 47730.039892 44670.221263 45483.042295 39622.529111 39315.162468 38093.448551 35757.559652 32812.636197 52160.024590 45218.004898 47686.851931 43715.150520 44837.125202 41543.366495 42927.009714 41310.604287 34484.048299 32495.119681 30633.654135 50349.110860 52875.790155 49761.040443 48881.849846 45863.324954 40741.008286 39219.635781 35883.234753 34970.305952 33602.341976 31056.803747 52613.912942 43890.343031 44054.752037 45836.615617 42684.519981 40137.714480 39411.211930 38736.588937 35692.010609 32459.845148 28849.416119 50645.324107 51557.962420 49046.399739 46236.915569 44323.092605 40365.587435 37030.045303 34623.838159 34117.433977 32563.500880 29945.385665 50288.630524 41677.772419 43131.266802 44605.829139 41215.057220 36992.907970 38030.386962 36600.736139 31402.146691 28374.335056 29787.705700 43916.568351 45662.449943 44798.533172 40042.001568 38897.121006 39465.407114 35441.172520 31792.411512 33341.414969 32916.502337 26693.473742 42855.410027 41229.538727 38037.177962 39435.065491 40751.124376 33314.602121 35233.738745 37384.545005 27465.555730 27608.137662 30714.892167 39912.527636 39062.270648 37872.767388 39698.269028 33857.755180 32730.860392 31604.769104 27685.602653 31329.506457 25727.623664 23714.086898 35909.390642 37013.800121 37877.760561 33615.741901 33233.162736 33383.909961 29338.762674 30116.712180 18459.501391 23577.917031 22332.951939 34174.899362 37885.353272 33685.631760 30951.245294 33718.178037 28605.126148 26422.252732 22955.568264 26114.635966 16444.881326 10589.500222 33257.654110 35888.156964 31318.338669 32061.550556 30798.983183 24460.230356 29685.693364 20560.529563 13960.193485 17270.101738 7424.440018 32285.454062 31777.948595 30387.626046 30218.917313 25775.559037 26330.255443 22207.303332 20091.593478 8758.026555 8948.407626 -6966.674744 30019.570966 30677.209945 29714.363094 25552.173654 26855.586077 20912.314934 18851.838524 15645.093629 15517.530049 -7257.892829 18823.898474 27511.477829 30321.786064 26666.544599 25269.077272 25475.264974 20711.155011 23627.136581 10988.439606 2466.179805 9819.259815 13644.303833 26681.044522 30027.652495 23527.082099 28068.346436 19087.224338 24374.870569 7919.379658 19057.247501 4214.269492 2625.283435 39772.579048 26415.397535 28516.857420 22708.648090 27070.668060 17900.759999 22344.929630 15382.567939 6343.199428 7365.959419 2428.123449 7993.779495 25385.861101 26090.133544 23234.399235 23093.373604 21585.469337 14154.310382 20003.072176 10432.506308 3686.005785 7348.463670 3751.931095 23592.589315 24169.750474 22442.609349 20198.282452 21476.207705 12295.329931 17386.783983 9438.749181 11684.591969 5163.796699 -71.314656 21421.519645 22897.804907 20570.545082 19604.314188 18051.159293 15064.276336 10153.256709 10679.541447 9535.137043 6912.841502 2887.529792 20047.270208 21697.484894 19015.145400 18994.702961 15521.550118 15243.227799 9893.095690 10779.683904 3123.988822 5711.474585 -11037.929455 19792.799041 20594.758059 17986.249304 17509.528089 14785.014783 12914.481782 11997.783760 6816.713069 6540.448505 10814.399081 8459.471930 19299.882031 19404.919407 17326.816982 15627.499539 14468.357395 11083.402271 11132.005125 6876.266136 9335.433257 7966.678071 7557.779045 18338.237987 18063.632547 16548.549597 14274.207797 13102.632498 10897.066648 8976.309281 9269.073634 7742.228720 8601.435527 13673.014711 17408.837822 17037.058424 15450.738991 13469.818462 11738.866334 10507.230766 7590.962650 10229.018394 1950.700856 10027.118123 12539.687452 16615.708956 16196.801865 14454.386745 12423.408804 10958.338215 9365.338386 7141.171732 9285.159323 -160.056302 9403.915471 8903.139585 16236.532369 15291.524844 13672.933958 11400.500958 10260.454562 8224.306406 7183.217480 6891.061792 1954.118017 6287.571943 8324.519717 15891.902214 14438.535763 12911.153476 10701.119240 9529.536867 7462.905810 7209.979195 4690.437404 4481.654274 3898.502231 8460.636940 15265.732372 13418.514867 12164.403685 10129.487358 8728.529530 6946.193646 6811.305611 3414.613005 6589.829315 2110.979103 9507.842618 14274.888194 12095.334445 11398.104574 9547.486736 7896.943684 6674.108681 6022.783705 2829.731900 7300.581162 -127.457420 11491.178561 13026.671115 10824.927552 10432.974198 8884.449323 7047.051543 6466.613350 5171.263892 2628.947480 6574.282087 -1619.011933 11882.490026 11958.204004 9811.058060 9353.856477 8271.274476 6297.620108 6056.580868 4370.491136 2518.253731 5267.491560 -1767.221374 9746.309794 10682.377421 8725.963068 8081.266159 7539.846944 5655.630808 5594.177688 3911.641913 2478.852605 4079.699507 -1293.894632 6685.905830 9489.223106 7795.650025 6878.873606 6741.581740 4979.137646 5006.981557 3652.162721 2507.252117 3369.694894 -862.234643 4525.903809 8150.673326 6914.629789 5742.823409 6168.178423 4686.559487 4697.424599 3597.501619 2608.730809 3053.408509 -158.850132 3186.429329 6771.984845 6029.576989 4511.890559 5123.004730 4028.529343 4303.880195 3699.552392 2825.157727 2914.639486 364.102358 2570.942608 5484.388362 5418.464724 3949.629934 4713.979650 3694.650349 3680.087246 3467.277166 2864.296318 2843.996132 713.845833 2130.128663 4291.875870 4587.771429 2703.130944 3555.652145 3185.159861 3442.354490 3082.001172 2474.833270 2692.706655 1030.962241 1585.959879 3589.394486 4361.180280 2448.837095 3006.829816 2172.924550 2252.656740 2645.340633 2022.717589 2046.437937 902.970346 1174.184986 2473.071805 3226.148814 1731.874585 2343.547158 2486.244350 1831.385354 1482.475532 1654.866843 1423.160058 521.432659 836.878989 3383.714274 3534.305564 1717.099438 1582.104684 157.501683 1713.179128 752.544844 862.879977 929.831518 60.869856 493.874358 2326.491489 3567.441396 1102.788454 2856.970760 1008.529069 672.324147 909.981991 74.966304 814.102619 -452.826612 229.627652 2598.409592 3971.679566 795.567228 1070.699368 1247.849485 86.878465 944.523400 -362.726441 222.727392 -207.681024 -123.617969 2065.990171 4637.982773 2423.015862 1963.236761 1455.910847 459.563597 382.443873 696.980847 -555.097242 236.559256 -439.417550 4955.645781 3897.058944 2232.164916 2161.591956 1635.448512 1783.719874 334.619795 579.321879 -95.656155 227.893542 -444.802576 5262.523051 6114.394618 2112.556199 3610.697065 1971.320341 522.665580 1865.822758 529.269553 231.494131 284.320675 -370.965419 -3833.188572 3527.333909 4687.675406 2874.326231 3503.192111 1855.695560 1265.437341 1513.739197 141.581589 846.071836 -380.614366 343.508540 1727.166398 7065.334960 2664.767017 3773.657185 2765.600583 1604.766608 2021.853373 363.047798 652.981949 -8.745201 3309.082241 5075.598830 4620.777713 4879.612049 4030.591355 2588.626928 2559.414886 1620.988291 1516.639614 239.099744 376.031358 8566.039330 8924.884492 7472.019777 5981.104688 4335.176817 3384.739015 3746.296125 1766.230674 1394.462189 884.944644 357.622240 24352.871248 8699.307804 7835.920924 5467.524529 6257.179225 4571.846461 2448.824870 3273.190355 1439.455251 984.641592 526.821772 20685.254063 -2142.789070 5600.166902 6625.693535 5311.103279 5625.667521 3712.810052 2828.701506 2248.164397 600.926571 1031.137414 12714.044948 2503.378327 3495.461488 8074.123552 5759.211141 6185.906838 4685.398688 3051.219028 2787.930455 818.422059 1054.001688 14391.159110 7029.962570 7373.641429 9236.318894 7462.638104 6067.220084 4476.578064 3768.176277 2556.205416 1709.649328 875.958157 20201.606210 14589.938805 13755.358122 10874.339789 8548.752881 6660.562004 5982.120660 4601.642932 2882.150219 1326.519045 1279.745524 25890.525703 28010.870670 13745.199199 10338.590649 8403.209985 8449.637116 6428.375312 3776.485528 4056.049977 1491.610949 1330.540497 24085.839831 20658.216465 -1362.749401 4685.615013 7854.446414 8469.780822 6871.450166 4962.168797 3290.127135 2222.256541 1006.964309 19209.452562 12756.759160 4718.669105 5488.001072 9152.994297 8504.709945 7280.687180 5644.332697 3567.885697 2426.218228 1102.396055 18388.790446 14807.602383 11353.532095 10177.733635 11579.785400 9127.195267 7340.026544 5279.091010 4145.459381 1864.725411 1554.902093 19090.430235 19378.536842 19022.319672 15778.035240 12158.766249 10365.103697 7735.281735 6498.161907 4494.470427 2443.337906 1238.743356 19183.072662 23130.423114 30070.292268 15889.656852 11015.454149 9792.281147 8997.870028 6670.257619 3798.843709 3314.470427 1149.057931 17735.484717 20790.768153 21129.874136 -665.612811 4591.613325 7686.677028 9801.891452 6687.950063 4659.486865 2337.641495 1714.835825 15707.041873 15775.202173 12122.395785 4984.443975 6217.691725 8677.705493 9314.263042 6796.842496 5062.126736 2626.369023 1761.446683 14550.658937 14914.728450 13745.332498 12229.950573 10918.426983 11699.984296 8645.063867 6981.023329 4394.097397 3096.495663 1475.878710 13984.209284 15413.254594 17107.375034 19103.619413 15148.198714 11256.651848 9772.442661 7385.423832 5173.578970 3002.722484 1780.559123 13432.713596 15573.476405 20069.527177 29033.162892 14382.831967 10653.999104 9178.552992 7757.342631 5205.493509 2608.732748 2079.364240 12541.082886 14359.174415 17856.816012 20075.331917 -536.714152 4602.253670 6851.311694 8703.112059 4916.000580 3225.887265 1523.926119 11467.209638 12574.580514 13005.089299 10125.562280 3362.783567 5528.073440 7064.407565 7728.042770 4652.655692 3041.273248 1486.490830 10569.591928 11605.410306 12317.932457 11905.346607 10652.361841 9724.872624 10465.050702 6580.550838 4951.578469 2590.410258 1726.303555 9889.027273 11171.436075 12783.999040 14649.384701 16174.134067 12226.748020 9300.625247 7363.330963 5047.698611 3013.024000 1597.562947 9275.774996 10756.536963 13047.976350 17557.537727 26556.141955 11290.007221 8808.898233 7339.022727 5282.456773 3007.603338 1528.037409 8607.127968 10025.507358 12049.656711 15769.471095 18808.392725 -1533.636460 4047.664218 5853.067326 5815.606353 2701.597723 1835.771678 7897.090838 9104.855605 10445.009866 11206.709445 8931.872113 1912.561148 3895.784204 5749.137495 5470.951779 2487.323958 1773.473431 7234.263886 8328.857918 9547.702107 10528.972991 10945.022947 8951.412751 7630.012070 8545.151826 4349.948699 2890.521199 1502.432189 6654.697833 7748.210537 9131.475514 10760.171031 12656.932195 13077.880943 9262.678619 6861.820417 4412.061536 2823.975700 1650.176582 6127.034905 7232.843401 8762.447828 10957.935421 14998.162684 22309.149505 8779.822186 7098.109135 4544.846942 3520.007367 1671.096880 5608.814638 6662.595423 8112.560729 10091.601232 13726.772214 17026.090007 -2101.415070 3311.940450 4563.610478 3541.428028 1303.122478 5091.436713 6038.716657 7255.246733 8572.250771 9524.203425 8331.724595 1705.932778 2777.991615 4195.304678 3709.707885 1007.836779 4596.269488 5443.856093 6499.086661 7607.126697 8530.578579 9357.269964 7726.661513 5724.982056 5813.048733 3004.853685 1296.906611 4141.628691 4924.335810 5928.621113 7102.421305 8380.254418 9827.071336 9485.302055 6855.169558 3718.287852 2367.352475 1632.321225 3726.164584 4462.127358 5449.172262 6726.610808 8467.132558 11397.108663 15435.683728 7378.186630 4600.430202 2352.370810 1831.084628 3337.765740 4018.325292 4945.460727 6168.369357 7839.470086 10953.662590 14157.018994 339.674027 2323.931843 2903.074141 2022.704582 2968.833646 3576.578526 4389.060379 5395.950404 6514.078790 7517.666381 7126.974186 2031.977084 2235.419505 3107.117184 1861.310334 2621.723807 3150.128441 3835.982845 4633.970173 5426.430296 5994.398602 6483.102087 5761.312277 5192.616382 3005.303260 1646.588965 2303.583574 2759.962147 3341.628633 4004.955344 4676.114302 5262.157375 5804.311578 5635.873218 4108.285033 3173.597191 1366.050979 2019.578180 2417.210095 2922.470805 3504.331977 4125.164260 4764.847984 5596.597343 6203.403010 5534.176530 2833.278161 1263.041255 1770.376115 2121.667962 2570.385818 3095.036941 3672.326739 4286.882730 5030.779744 5712.136428 4915.954296 2624.030124 1401.858452 1553.163326 1867.364630 2271.797993 2750.185814 3280.853908 3828.847366 4335.798791 4722.115692 4061.593946 2514.007978 1737.796498 1363.484276 1646.894258 2014.935445 2455.554809 2950.323564 3464.038952 3916.046630 4251.305107 3744.419333 3264.556155 2141.125253 1196.571989 1453.096400 1789.515191 2198.640559 2670.681037 3190.016539 3721.607419 4225.388753 4051.200725 3518.546127 1737.841186 1048.175142 1279.747825 1586.084170 1964.173923 2413.243806 2942.686612 3598.868075 4567.282425 5718.096694 3579.817796 1136.403323 915.153977 1122.415432 1397.722393 1739.421707 2148.567276 2638.680339 3268.625915 4463.554072 5797.647055 2708.609765 1200.905177 795.823991 979.191264 1222.284466 1521.938250 1873.411797 2268.747845 2680.410234 3058.662098 2789.897818 927.040806 1575.829081 689.879150 850.540140 1062.225679 1319.632298 1612.376419 1918.709292 2188.886256 2317.780463 2108.097615 1813.952817 1780.124930 597.929596 738.231417 921.818800 1142.422067 1388.450079 1639.377493 1862.876731 2019.033316 2039.355031 1912.629375 1795.126753 520.952862 644.184718 804.492136 995.887836 1208.480549 1427.949171 1639.052626 1836.599263 2017.097598 2005.070165 1738.156928 459.988706 569.963825 712.105263 881.307297 1069.629492 1267.064694 1466.218170 1675.009067 1972.879173 2304.558447 2445.548522 416.446890 516.976028 645.552809 798.441759 968.451069 1146.323817 1322.865803 1491.543220 1666.526237 1771.639625 1283.338995 32315.695139 29889.733522 26725.193508 23337.298990 20082.571399 17351.076869 14185.088731 10867.514704 7521.509058 6088.760683 3645.721356 1915.689064 2007.323571 -2573.338360 30289.898727 26256.801541 24048.408568 21062.072812 18370.267015 15427.462742 12384.380821 10012.192804 7903.768907 5877.756214 3347.109540 4629.156847 -1143.114443 560.344487 30485.892951 27763.962482 25022.597121 21734.056706 18959.011656 16242.441349 14016.705698 11472.991655 8919.069820 6694.312651 4960.128864 1943.677402 1278.908659 1009.354157 29933.849596 27276.253724 24460.728613 21873.152637 19659.540277 17108.788968 14626.316714 12093.290102 10071.976171 7413.112505 5282.299496 4421.631801 1993.328605 810.684649 29622.522835 26650.487819 24602.747326 21922.509578 19617.038678 17320.112534 15311.532944 13397.487128 10872.454673 9025.350993 6870.579102 4160.222440 2350.099323 1284.455271 27686.739454 25916.410580 23596.886869 21945.943337 20376.605448 18689.992834 16545.608181 14546.349990 12899.403567 10663.098212 8176.870701 5906.221958 3150.366914 1572.712874 28171.157627 26772.275302 25046.491217 22744.803521 20506.309206 18760.453658 17421.527610 15602.764815 13352.596862 11259.112106 8811.390882 5907.005818 3071.514263 1671.055149 27549.576789 24149.913593 22669.047381 21990.792764 21122.686249 18969.740043 16414.808319 14479.356434 13073.481729 11635.439266 9500.792923 6878.327052 3610.166918 2017.086264 31171.199982 28761.092732 27160.006227 24901.136623 20236.364786 17970.110683 16891.371235 15222.587298 12626.077010 10618.137218 8759.916539 6141.201527 2856.738590 1700.248100 21934.912933 26738.862641 22810.684043 18844.207664 18458.216292 18268.180163 14965.986962 11562.431703 9916.904031 9158.746809 8001.101872 6095.513286 2774.055305 1671.411143 26953.790658 18875.335274 20449.539909 21125.017446 20152.430168 16850.977008 13408.248319 12086.498573 10615.186774 8715.096958 7450.528190 4815.649795 1433.669925 1457.169582 26147.710673 14768.881094 19651.403098 17113.161116 14594.329288 13611.645149 12717.639655 11527.455597 10843.902942 9762.308758 6893.734097 3471.698904 2171.796829 1124.470671 12093.080394 16257.435039 16481.608775 10094.104244 8576.833945 9075.672073 9775.999382 8348.732336 7356.007293 5146.232099 1557.327521 1376.048076 1321.714892 1368.908547 1235.911023 16992.242171 9915.931978 10323.284881 8530.200429 6382.740850 -1476.403965 8444.362076 7559.133038 7892.991586 519.094731 3465.425577 3155.822117 1673.498176 5771.275032 5682.631693 7635.441072 -3767.584239 -6507.385990 2423.722566 19179.124990 9320.187700 4288.535198 17402.678368 10729.172814 50.892921 3504.027585 2025.684553
</DataArray>
<DataArray type="Float64" Name="Velocity" NumberOfComponents="3" format="ascii">