<VTKFile type="PolyData">
<PolyData>
<Piece NumberOfPoints="1945" NumberOfVerts="1945" NumberOfLines="0" NumberOfStrips="0" NumberOfPolys="0">
<PointData>
<DataArray type="Float64" Name="Pressure" format="ascii">
 6779.359215 10453.924900 11732.506145 19798.107312 15009.519380 23315.706138 15325.859652 21295.226746 15806.286274 22126.765147 16161.388553 22039.165083 16564.475643 22603.122764 16881.166583 22995.655023 17148.151951 23462.127557 17348.881405 23867.641383 17489.848816 24186.541757 17582.773668 24419.199301 17640.239986 24574.639150 17673.874063 24671.724907 17692.570400 24728.740956 17702.477838 24760.368078 17707.501384 24777.035403 17709.944601 24785.407228 17711.086300 24789.422838 17711.599302 24791.263542 17711.820890 24792.069168 17711.912788 24792.405027 17711.949308 24792.537861 17711.963177 24792.587391 17711.968190 24792.604635 17711.969908 24792.610162 17711.970471 24792.611805 17711.970672 24792.612450 17711.970839 24792.613397 17711.971232 24792.616080 17711.972381 24792.623806 17711.975700 24792.645160 17711.984954 24792.701811 17712.009772 24792.845977 17712.073686 24793.197207 17712.231425 24794.014482 17712.603638 24795.825657 17713.441267 24799.636049 17715.233873 24807.219453 17718.870431 24821.433834 17725.838137 24846.389977 17738.396077 24887.227350 17759.582119 24949.066781 17792.868643 25034.647278 17841.418156 25143.430920 17906.858532 25272.158744 17988.482280 25416.534531 18084.392064 25622.166258 18200.730810 25829.097131 18572.309803 26413.720348 19713.205190 31023.406075 17971.019566 27707.364373 12359.166439 16168.725499 9191.676331 14108.729382 8172.846861 14034.950637 7767.337529 14817.943514 6858.840576 13553.436244 5178.408575 9080.265555 3734.608394 6424.001330 2906.298192 5464.279785 2458.419725 5074.965223 2067.583941 4414.200812 1593.506040 3284.451277 1150.692112 2324.135756 853.296103 1822.897201 678.696263 1567.936799 550.500878 1320.435579 426.580052 1011.815193 314.582434 738.786338 232.551647 564.606164 179.716379 461.429088 142.793172 379.335976 111.213482 295.308643 83.102257 218.615771 60.888237 162.557894 45.430649 126.331297 34.905615 100.649422 26.915643 78.383578 20.236579 58.528661 14.808473 42.904570 10.798715 32.065917 8.027925 24.667223 6.066687 19.014300 4.555849 14.278113 3.346756 10.439712 2.419452 7.614822 1.755492 5.664744 1.294029 4.280325 0.961392 3.210507 0.707483 2.354771 0.511673 1.700394 0.366737 1.232994 0.264413 0.908090 0.192853 0.673384 0.141021 0.494051 0.102067 0.355967 0.072861 0.254030 0.051717 0.182206 0.036894 0.132009 0.026500 0.095656 0.018988 0.068345 0.013357 0.047752 0.008903 0.030192 0.005169 0.014218 0.003338 0.007877 12291.025884 11048.376716 9084.661390 7053.331969 5195.360877 3630.581700 2419.426164 1552.131330 971.354088 606.404372 389.712845 267.584596 201.802446 167.218507 148.467349 136.372832 125.312913 111.503718 91.843236 63.547798 29.628312 30.528213 65.896237 -387.061903 -2140.742399 -2551.487985 -1491.683088 -641.422001 -262.208344 -102.066608 -37.993894 -13.592810 -4.695764 -1.572749 -0.512452 -0.162909 -0.050653 -0.015436 -0.004619 -0.001359 -0.000394 -0.000113 -0.000032 -0.000009 -0.000002 -0.000001 -0.000000 -0.000000 -0.000000 -0.000000 -0.000000 22294.781515 19263.054503 17036.938568 14334.951497 11482.256596 8584.812491 6106.945219 4112.019325 2664.046745 1679.773972 1051.575964 674.262109 458.275389 337.585883 269.335848 226.326189 192.003307 157.584231 118.164979 66.423970 2.826822 -5.762169 479.578106 -2.454104 -5019.642819 -4428.924744 -1484.261865 -709.819623 -309.809011 -126.546630 -49.059024 -18.212389 -6.514256 -2.255456 -0.758727 -0.248738 -0.079674 -0.024990 -0.007689 -0.002325 -0.000692 -0.000203 -0.000059 -0.000017 -0.000005 -0.000001 -0.000000 -0.000000 -0.000000 -0.000000 -0.000000 0.059375 0.281623 1.289663 5.423578 20.281350 65.589566 179.905319 414.794507 801.151708 1238.667090 1249.404111 728.405537 290.560471 111.243562 38.960554 12.835701 3.988231 1.171438 0.325032 0.084757 0.020504 0.004465 0.000807 0.000084 -0.000019 -0.000018 -0.000008 -0.000003 -0.000001 -0.000000 -0.000000 -0.000000 -0.000000 -0.000000 -0.000000 -0.000000 -0.000000 -0.000000 -0.000000 -0.000000 -0.000000 -0.000000 -0.000000 -0.000000 -0.000000 -0.000000 -0.000000 -0.000000 0.000000 0.000000 0.000000 0.054226 0.265129 1.206876 4.964367 17.943018 55.746549 146.446120 320.571147 571.181388 789.974852 793.116161 565.746611 300.821754 128.693375 49.526569 17.610435 5.873414 1.851905 0.554215 0.157535 0.042409 0.010724 0.002501 0.000515 0.000082 0.000004 -0.000005 -0.000003 -0.000001 -0.000000 -0.000000 -0.000000 -0.000000 -0.000000 -0.000000 -0.000000 -0.000000 -0.000000 -0.000000 -0.000000 -0.000000 -0.000000 -0.000000 -0.000000 -0.000000 -0.000000 -0.000000 -0.000000 0.000000 0.000000 0.000000 -0.000000 -0.000000 -0.000000 -0.000000 -0.000000 -0.000000 -0.000000 -0.000000 -0.000000 -0.000000 -0.000000 -0.000000 -0.000000 -0.000000 -0.000000 -0.000000 -0.000000 -0.000000 -0.000000 -0.000000 -0.000000 -0.000000 -0.000000 -0.000000 -0.000000 -0.000000 -0.000000 -0.000000 0.000000 0.000000 0.000000 -0.000000 0.000000 -0.000000 0.000000 -0.000000 0.000000 -0.000000 0.000000 -0.000000 -0.000000 -0.000000 -0.000000 -0.000000 -0.000000 -0.000000 -0.000000 -0.000000 -0.000000 -0.000000 -0.000000 -0.000000 -0.000000 -0.000000 -0.000000 -0.000000 -0.000000 -0.000000 -0.000000 -0.000000 -0.000000 -0.000000 -0.000000 -0.000000 -0.000000 -0.000000 -0.000000 -0.000000 -0.000000 -0.000000 -0.000000 -0.000000 -0.000000 -0.000000 -0.000000 -0.000000 -0.000000 -0.000000 -0.000000 -0.000000 -0.000000 -0.000000 -0.000000 -0.000000 -0.000000 -0.000000 -0.000000 -0.000000 -0.000000 -0.000000 -0.000000 -0.000000 -0.000000 -0.000000 -0.000000 -0.000000 -0.000000 -0.000000 -0.000000 -0.000000 -0.000000 -0.000000 -0.000000 -0.000000 -0.000000 -0.000000 -0.000000 -0.000000 -0.000000 -0.000000 -0.000000 -0.000000 -0.000000 -0.000000 -0.000000 -0.000000 -0.000000 -0.000000 -0.000000 -0.000000 -0.000000 -0.000000 -0.000000 -0.000000 -0.000000 -0.000000 -0.000000 -0.000000 -0.000000 -0.000000 -0.000000 -0.000000 -0.000000 -0.000000 -0.000000 -0.000000 -0.000000 -0.000000 -0.000000 -0.000000 -0.000000 -0.000000 -0.000000 -0.000000 -0.000000 -0.000000 -0.000000 -0.000000 -0.000000 -0.000000 -0.000000 -0.000000 -0.000000 -0.000000 -0.000000 -0.000000 -0.000000 -0.000000 -0.000000 -0.000000 -0.000000 -0.000000 -0.000000 -0.000000 -0.000000 -0.000000 -0.000000 -0.000000 -0.000000 -0.000000 -0.000000 -0.000000 -0.000000 -0.000000 -0.000000 -0.000000 -0.000000 -0.000000 -0.000000 -0.000000 -0.000000 -0.000000 -0.000000 -0.000000 -0.000000 -0.000000 -0.000000 -0.000000 -0.000000 -0.000000 -0.000000 -0.000000 -0.000000 -0.000000 -0.000000 -0.000000 -0.000000 -0.000000 -0.000000 -0.000000 -0.000000 -0.000000 -0.000000 -0.000000 -0.000000 -0.000000 -0.000000 0.000000 -0.000000 0.000000 24453.276976 20106.752525 19327.302876 16883.857313 14842.249758 11886.350468 9251.250245 6700.105549 4592.734747 3008.153721 1894.859882 21401.670024 19459.787333 17187.351667 14766.670696 13216.388214 10654.126506 8676.460236 6500.378773 4611.747903 3116.662233 2006.827630 23643.508506 20756.720491 17934.108022 16125.093986 14320.548320 11606.913121 9578.395977 7220.277672 5170.574475 3522.710619 2275.091639 22606.894955 19711.477381 17651.744787 15944.666138 14215.960564 11807.886509 9921.636585 7568.474102 5479.254633 3749.431113 2416.305938 23400.461163 20644.613514 18346.804078 16380.450065 14701.314289 12319.806959 10383.212708 7966.202484 5798.839947 3977.283672 2562.012668 23685.573093 20775.745094 18520.088645 16698.187925 15106.523405 12716.711974 10756.105565 8288.791709 6046.248157 4145.531659 2663.711281 24198.479241 21224.219771 18986.361491 17143.828099 15509.614291 13086.340483 11093.022055 8563.405812 6248.767730 4281.728361 2745.809346 24674.291435 21624.947857 19375.030127 17510.877282 15857.012938 13407.231699 11370.651257 8779.150495 6403.941663 4384.039612 2806.139633 25066.588617 21960.511933 19704.606047 17828.650999 16151.585303 13664.728009 11583.283487 8940.253831 6517.397722 4456.923381 2847.836487 25372.287209 22234.470179 19971.823917 18079.635856 16376.166835 13855.008095 11736.964070 9053.977765 6594.763626 4504.085008 2872.408243 25586.029315 22431.224204 20163.071054 18258.093187 16534.390723 13986.863426 11840.572026 9127.094884 6639.808800 4525.548453 2876.995245 25725.147804 22563.141904 20291.673176 18377.674727 16639.068654 14071.574749 11903.446736 9165.133256 6653.615065 4520.674064 2860.852825 25809.980934 22645.877654 20372.489078 18452.189944 16702.874439 14120.449531 11934.130745 9172.913685 6642.231874 4489.312212 2796.728956 25858.582205 22694.394779 20419.874739 18495.248566 16738.230644 14143.934631 11940.220584 9156.326915 6596.952578 4348.045610 2561.903286 25884.931407 22721.206551 20445.932045 18518.211842 16755.344809 14150.779919 11929.784176 9121.652637 6503.125278 4111.330509 2499.588955 25898.493880 22735.189197 20459.316595 18529.268817 16761.786363 14148.307762 11910.952730 9075.852147 6380.316114 3827.417586 2203.417494 25905.131077 22742.062197 20465.683869 18533.870564 16762.822462 14142.266896 11891.107609 9033.888245 6290.663974 3625.727978 1858.862780 25908.220404 22745.237022 20468.449251 18535.352634 16761.728012 14136.227027 11875.395689 9002.494412 6239.822631 3522.930623 1738.308292 25909.585886 22746.606080 20469.514944 18535.555357 16760.231421 14131.650468 11865.378031 8983.218809 6213.427016 3490.678354 1693.700630 25910.157022 22747.150866 20469.855569 18535.364808 16759.030555 14128.682206 11859.730909 8973.301088 6199.166109 3476.808556 1678.206182 25910.381774 22747.346791 20469.926143 18535.133558 16758.257524 14126.983171 11856.751789 8968.726210 6192.995470 3470.771660 1672.237661 25910.464171 22747.407615 20469.916382 18534.963607 16757.818848 14126.107519 11855.281198 8966.615502 6190.412740 3468.384422 1669.978282 25910.491831 22747.421785 20469.893826 18534.861496 16757.590167 14125.688134 11854.614475 8965.692150 6189.328556 3467.422448 1669.115903 25910.500072 22747.422518 20469.876679 18534.807351 16757.479295 14125.496478 11854.325861 8965.310558 6188.895119 3467.045042 1668.789695 25910.502202 22747.420856 20469.866786 18534.781170 16757.429093 14125.413327 11854.205103 8965.156771 6188.726254 3466.900876 1668.668132 25910.503031 22747.420015 20469.862378 18534.769876 16757.408013 14125.379348 11854.156939 8965.096837 6188.661860 3466.846655 1668.623315 25910.504764 22747.421381 20469.862383 18534.767036 16757.401141 14125.367298 11854.139420 8965.074952 6188.638438 3466.826985 1668.607199 25910.510076 22747.427583 20469.868398 18534.771770 16757.403767 14125.367083 11854.136274 8965.069351 6188.631566 3466.820842 1668.601947 25910.525324 22747.445936 20469.887606 18534.789993 16757.419595 14125.379302 11854.144733 8965.074262 6188.633731 3466.821344 1668.601519 25910.566826 22747.495470 20469.939733 18534.840360 16757.464790 14125.416380 11854.173296 8965.094430 6188.646769 3466.828638 1668.605142 25910.674927 22747.622618 20470.073085 18534.969383 16757.581012 14125.512525 11854.248313 8965.148404 6188.682567 3466.849242 1668.615965 25910.944499 22747.934438 20470.398569 18535.284070 16757.864651 14125.747791 11854.432564 8965.281527 6188.771230 3466.900343 1668.642962 25911.586814 22748.663961 20471.156193 18536.015990 16758.524746 14126.296744 11854.863893 8965.594134 6188.979886 3467.020411 1668.706400 25913.045306 22750.287724 20472.833654 18537.635833 16759.987290 14127.517253 11855.826886 8966.294749 6189.448789 3467.289787 1668.848642 25916.191186 22753.714128 20476.354540 18541.036145 16763.063470 14130.096529 11857.873202 8967.791105 6190.454005 3467.866568 1669.153019 25922.613065 22760.541757 20483.333141 18547.781174 16769.184218 14135.261394 11862.000754 8970.829753 6192.505830 3469.043293 1669.773697 25934.970482 22773.335737 20496.342754 18560.376482 16780.664125 14145.029985 11869.881123 8976.682120 6196.485055 3471.326490 1670.977814 25957.266853 22795.750478 20519.029729 18582.409257 16800.875422 14162.422018 11884.083054 8987.347596 6203.802119 3475.531731 1673.196393 25994.733626 22832.194617 20555.773392 18618.270212 16834.079328 14191.434776 11908.162741 9005.698089 6216.538205 3482.872544 1677.072590 26053.071349 22886.972309 20610.841458 18672.344639 16884.740353 14236.570467 11946.417293 9035.418998 6237.488185 3495.006618 1683.489094 26136.512286 22962.491542 20686.766895 18747.590448 16956.383208 14301.985033 12003.267176 9080.622801 6269.988505 3513.981958 1693.553599 26244.134591 23055.850454 20780.959125 18842.379369 17049.062311 14389.879808 12082.366078 9145.280958 6317.521224 3542.024880 1708.514017 26371.885538 23163.860362 20889.402549 18951.505509 17157.798403 14497.709177 12184.645948 9232.446149 6383.330785 3581.245828 1729.588275 26516.206414 23288.769626 21013.402383 19074.741358 17281.114577 14621.176488 12306.508759 9342.437043 6469.921074 3633.489624 1757.799140 26672.028894 23420.735033 21136.529032 19191.618894 17411.836017 14762.364475 12445.653601 9472.039901 6577.790330 3700.202123 1793.977087 26976.835723 23680.383230 21344.401680 19314.749422 17509.478436 14906.176854 12606.120619 9619.947420 6704.929557 3781.869050 1838.835918 27421.311647 24070.657927 21679.144289 19610.824452 17618.244937 15007.263144 12776.484056 9790.625932 6849.746144 3877.665611 1892.805648 28024.618390 24279.107266 21532.275429 19818.511715 17865.553604 15088.718102 12920.676395 9983.855017 7013.650501 3986.482138 1955.816643 32858.927219 26081.181872 21746.390165 19603.765948 18074.832304 15244.055765 13025.630025 10188.489384 7197.699036 4108.002085 2027.581270 27848.990608 23710.998885 22045.364199 19483.727972 17984.737316 15471.559726 13118.605457 10399.679785 7399.559504 4241.651735 2107.954887 19293.801539 22121.276564 22103.631006 19693.607047 17762.373048 15696.065661 13209.169013 10629.089090 7618.810273 4385.508471 2196.418462 22705.203604 25197.524651 22251.595694 19985.950698 17838.958362 15941.475950 13274.798334 10878.183596 7859.606728 4538.418510 2291.370124 24544.451493 26445.942874 22223.812915 19821.339685 18073.345165 16269.113805 13369.307351 11120.927174 8119.556909 4701.644137 2390.710007 29077.891060 31149.001762 23985.244742 20176.418264 17981.875080 16505.747208 13605.878096 11338.764218 8385.663869 4874.842117 2492.583449 25435.443499 25982.520130 21963.458938 20604.005869 17976.937953 16496.905861 13962.586569 11542.328057 8652.373547 5052.492818 2594.387208 14225.609097 17773.906869 20814.868944 20762.763547 18366.589062 16429.344913 14326.142264 11732.916820 8927.477489 5229.425636 2692.448496 12690.417166 21755.421268 24282.365181 21082.460895 18908.703709 16675.420242 14703.965714 11885.293014 9203.775921 5405.424742 2785.216600 12703.997833 23263.671988 25482.126677 21186.232192 18956.976529 17068.441791 15146.575655 12042.671764 9447.963291 5576.029117 2875.217871 13500.271208 28483.832865 30678.905359 23065.590552 19418.946232 17109.743611 15462.586108 12306.720565 9639.515804 5728.815821 2964.122779 12095.045242 24709.164461 25416.043959 21268.830696 19945.096879 17189.049712 15487.376395 12654.229266 9789.924008 5860.803086 3048.129968 7735.278932 13343.742448 17291.039640 20397.915890 20177.409084 17619.443477 15417.019894 12978.236676 9902.852922 5983.119395 3123.792719 5641.894198 12086.054996 21466.390823 23945.364171 20475.310459 18175.394703 15633.544980 13291.554408 9958.027469 6092.257051 3193.310932 5044.471234 12275.373171 22972.091228 25048.227928 20592.651128 18226.538114 15974.240257 13645.982951 10003.434908 6160.286158 3254.218861 4812.247846 13178.834541 28208.716227 30237.405034 22483.555024 18668.004402 15950.483786 13853.210154 10142.583633 6173.144852 3295.127267 4218.796384 11862.487187 24498.502606 25033.820641 20658.634598 19129.991596 15954.273823 13753.576311 10354.783836 6145.745560 3315.374366 3128.181061 7576.797115 13203.296542 16903.572908 19753.711373 19265.728229 16297.135571 13545.356717 10538.322916 6082.018352 3329.995566 2280.263173 5539.455085 11963.416726 21039.317660 23196.049094 19461.754679 16741.322481 13605.482344 10708.798403 5965.329777 3336.761715 1857.336976 4981.960027 12154.992260 22489.860919 24199.864876 19490.210293 16668.774649 13774.313886 10912.434022 5850.089066 3303.220264 1634.362168 4776.016393 13067.491052 27689.322990 29226.753528 21210.036435 16978.234989 13583.220298 10957.898583 5841.046353 3211.560591 1404.318775 4202.855827 11794.488789 24105.386803 24085.385230 19184.761843 17254.917086 13426.781906 10692.106378 5916.949358 3080.771685 1097.435336 3126.012753 7544.664460 12953.508951 15860.237921 18112.893827 17158.748568 13610.251270 10319.479926 5982.915760 2919.282490 813.152005 2282.787547 5512.340061 11683.378423 19806.858502 21219.397024 17126.617024 13864.847579 10205.810320 6057.535491 2713.189014 627.175402 1859.494959 4949.672963 11824.405367 21544.146308 22039.610772 17002.226338 13605.727807 10195.485024 6160.834249 2531.606414 516.339948 1635.636424 4740.641333 12744.414788 26214.828727 26466.726895 18366.630593 13722.759152 9860.569418 6070.476982 2504.119823 429.631845 1406.281161 4173.480663 11560.801018 22957.316378 21709.179807 15941.852312 13716.293121 9601.188036 5648.022908 2612.952240 340.392162 1100.876405 3106.639159 7417.868811 12262.733121 13402.505274 14542.909680 13265.608120 9692.741989 5121.327876 2735.915011 256.089266 817.032230 2268.073196 5402.665362 10932.545196 16973.945273 17021.170417 12897.856078 9798.361040 4830.631400 2854.304406 192.327417 630.216409 1844.421884 4825.660866 10959.373862 18316.938912 17526.152882 12656.056864 9417.388461 4637.222242 2970.536055 150.433322 518.233627 1618.560298 4604.209827 11798.471604 22628.981657 21282.815021 13626.635941 9466.635363 4257.945091 2860.953551 120.917738 430.791541 1389.362785 4058.161333 10889.676473 20313.137419 17225.908980 10712.805441 9223.086638 4142.574045 2373.590297 95.496072 341.354445 1087.566655 3031.851951 7081.798567 10861.071666 9138.021762 8868.262098 8402.958020 4413.944105 1750.878316 72.454372 257.050742 807.255842 2210.095667 5102.984622 9372.667286 12092.485933 10509.249145 7729.015442 4559.158433 1375.954782 53.810688 193.097336 621.710146 1787.231633 4486.453271 9178.014376 12876.601130 10814.519412 7516.159754 4252.017934 1130.485148 40.573563 150.828868 509.596264 1557.375355 4226.499207 9733.019893 16110.330472 13364.693350 8219.048948 4504.041433 694.749266 31.460089 120.968105 422.015557 1330.109046 3729.660005 9261.713248 15329.238423 10983.564457 5445.728555 4258.519623 584.747106 24.511175 95.362482 333.408354 1040.370738 2816.362640 6276.404096 8576.919368 4107.370486 3515.124371 3170.806491 921.757859 18.653630 72.284659 250.659602 772.214598 2049.005315 4430.782008 6803.795479 5853.621460 4555.486939 2467.467605 1011.233145 13.820041 53.646386 187.938878 592.278754 1635.770980 3759.128495 6271.877506 5947.610296 4541.219810 2455.049268 784.414396 10.186450 40.374205 146.222138 481.579589 1402.716216 3441.696828 6163.289066 5910.146928 3576.353373 2255.592235 1155.413863 7.637899 31.194118 116.585258 395.130650 1183.895877 3037.500943 6247.987044 8113.716538 5527.972692 1316.101954 1585.109370 5.816245 24.194593 91.293373 309.617085 922.459872 2344.658541 4918.127346 7439.845704 4436.994056 1014.901011 1428.570264 4.402374 18.326541 68.733051 231.185338 682.516884 1704.278460 3356.349916 4570.391140 2840.124929 1078.995921 1390.298414 3.259528 13.509292 50.639206 171.867680 517.575647 1330.955420 2710.863273 3723.813150 2581.817250 1525.796760 1552.618563 2.371735 9.893145 37.760129 132.061683 413.434735 1113.362775 2411.813090 3603.628365 2575.423617 985.075421 1491.992217 1.727534 7.352604 28.827448 103.633749 332.434326 919.179974 2103.177003 3783.874202 4541.935188 3347.222312 728.977633 1.274764 5.535881 22.024169 79.533528 253.729024 693.622564 1573.659854 2943.496558 4505.199807 3564.968051 897.653604 0.945742 4.130854 16.346467 58.150823 181.520984 481.790820 1038.881973 1711.135932 2229.906715 2469.365708 1963.927131 0.692599 2.999294 11.692908 40.948234 126.165825 331.176095 705.434395 1150.950406 1599.398185 2676.080335 2763.378339 0.495296 2.120779 8.198367 28.693762 89.168216 238.198985 522.482116 893.200995 1318.306426 2106.106161 2520.595185 0.347694 1.486217 5.778130 20.498232 64.932169 178.149315 409.123732 761.789697 1193.173914 1712.121728 1438.308646 0.244664 1.058194 4.169815 14.982670 47.957101 133.436762 317.028431 641.819664 1150.540163 1915.309967 2176.749740 1178.939785 732.336378 474.974633 326.347533 238.545026 179.730693 132.373056 89.808807 45.973766 9.070874 -38.547758 -329.336672 -169.638216 643.850943 1260.345898 783.418787 499.713259 332.749646 235.341876 174.117545 130.172846 96.343553 62.120210 27.725932 71.650919 -12.932496 -476.231506 -528.019489 1434.464681 886.358164 558.643278 365.210087 252.942115 183.911009 135.847176 99.485488 69.901961 24.913115 -18.042501 23.622084 260.530376 -46.143345 1502.554860 902.575941 541.442239 327.935809 205.211473 132.253652 84.904408 50.380478 26.877941 16.242422 -9.145958 -117.829086 -77.360749 -78.799105 1588.366150 944.875515 556.364782 326.930421 196.303518 120.475333 73.826936 41.973749 16.174739 1.384403 16.030451 9.230397 24.100030 -5.664579 1639.957184 961.669135 551.795739 310.356635 174.201719 96.925400 51.168813 22.789462 3.160756 -14.705601 -23.693081 -28.701806 -8.083396 -13.902462 1683.027697 978.183737 552.342999 302.161573 162.301359 84.654948 40.250803 13.542486 -2.236038 -11.110514 -15.103912 -19.046449 -7.448470 -7.667519 1713.904447 989.530446 552.217377 296.024884 153.897256 76.469472 33.894838 9.319394 -5.517981 -13.638893 -15.856534 -15.637453 -6.987275 -6.404524 1734.387187 996.378821 551.388999 291.494609 148.322370 71.516437 30.625015 8.408196 -4.162121 -11.147869 -13.817110 -13.604695 -7.602211 -5.919191 1744.216081 997.462167 548.294473 287.013621 144.095670 68.477935 29.226170 8.798789 -2.000292 -7.539086 -9.669668 -9.510099 -5.735816 -4.362571 1738.916196 987.950147 538.525802 279.189238 138.729786 65.400145 28.188350 9.499145 0.060289 -4.569418 -6.369981 -6.344343 -4.076753 -3.082029 1716.509732 965.537857 519.173792 264.971889 130.000912 60.835652 26.465977 9.737069 1.632992 -2.200457 -3.737432 -3.885990 -2.640447 -1.994074 1631.186762 894.675094 474.323907 237.494826 114.308735 52.936250 23.127791 8.985983 2.358413 -0.676087 -1.908198 -2.139092 -1.526688 -1.166736 1405.745191 701.305723 348.644768 171.753879 81.656914 37.580414 16.502287 6.641448 2.104536 0.067110 -0.766919 -0.976642 -0.719523 -0.587301 1522.884489 659.512778 300.881029 138.799342 63.489886 28.569362 12.471521 5.150935 1.873060 0.437290 -0.153430 -0.343550 -0.291974 -0.346682
</DataArray>
<DataArray type="Float64" Name="Velocity" NumberOfComponents="3" format="ascii">