<VTKFile type="PolyData">
<PolyData>
<Piece NumberOfPoints="1945" NumberOfVerts="1945" NumberOfLines="0" NumberOfStrips="0" NumberOfPolys="0">
<PointData>
<DataArray type="Float64" Name="Pressure" format="ascii">
 44229.565020 49743.415205 51991.439364 57854.498311 49649.054730 54943.694705 46708.170592 53420.014444 47025.397032 53895.086324 46209.424950 53029.554215 45805.693764 52454.275915 45629.499665 52081.002676 45357.419391 51492.445394 45028.056516 50851.507032 44561.950341 49930.033759 44012.321354 48949.946827 43346.249162 47461.774751 42597.446665 46127.935428 41866.002147 44774.360648 41158.926202 43394.053484 40486.784637 42085.085880 39873.339362 40869.375778 39327.911842 39780.663663 38859.582489 38845.850216 38467.457655 38059.420688 38148.209442 37425.412778 37893.464292 36923.898244 37693.566943 36534.786704 37540.107506 36239.650467 37425.864854 36021.379845 37345.229190 35867.471513 37293.965323 35768.441333 37269.050238 35717.299867 37268.405642 35708.524237 37290.559051 35736.007545 37334.307113 35794.291862 37397.327397 35875.260435 37475.709560 35966.430051 37562.533394 36063.437227 37647.013409 36141.310086 37728.162921 36188.003883 37809.131006 36214.310828 37877.999449 36190.266002 37914.752889 36092.993931 37903.610447 35925.290185 37835.364640 35677.437237 37719.637047 35431.795298 37567.511914 35162.684928 37406.309574 34876.186846 37221.410603 34659.094368 36964.693032 34138.171531 36777.643526 33884.307660 36897.246048 33503.180148 38800.691551 35126.941107 42328.734264 42156.470491 40261.334831 39004.610356 32729.235976 30541.857822 28578.247588 27863.815672 27075.505170 27896.279765 26437.289187 29887.297129 24220.768832 28919.241204 20286.792598 23332.336783 16973.987467 19340.389561 14823.351648 17478.612297 13288.005357 16501.589810 11691.762269 14923.221671 9899.307446 12481.224964 8304.174801 10403.303935 7117.011516 9102.373975 6217.180772 8204.842098 5397.719359 7266.786009 4590.355119 6190.243079 3868.736544 5232.179333 3291.178563 4519.887819 2833.118094 3976.457744 2434.822626 3475.618841 2065.252219 2972.386986 1734.187827 2514.139355 1457.897846 2142.014479 1233.514282 1844.794892 1044.275578 1586.343339 877.033723 1346.285939 729.758135 1130.235270 605.294480 948.932610 503.264020 801.324078 418.943457 677.085303 347.209341 567.590947 285.544958 471.126858 233.522349 389.330969 190.728373 322.085963 155.792105 266.584079 126.933227 219.603828 102.815060 179.391686 82.742373 145.497865 66.298763 117.621366 53.004905 94.987551 42.285273 76.550973 33.608836 61.419447 26.579544 49.002220 20.912589 38.885490 16.370913 30.686628 12.736884 24.032367 9.823956 18.615519 7.491834 14.228209 5.639873 10.735688 4.179672 8.016849 3.028859 5.808248 2.195796 4.087324 1.868443 3.439491 46136.568374 42799.194991 40367.782650 37529.607046 35280.824376 33303.386008 31402.140868 29547.456752 27678.313911 25689.120881 23437.039131 20779.514984 17759.155252 14585.196765 11492.211641 8693.202598 6335.651782 4482.188408 3078.987792 1974.392277 1487.544487 2594.452997 3828.310881 -440.043589 -5517.791491 -5117.921858 -3381.612857 -2056.435827 -1188.873755 -653.872318 -343.547831 -173.092479 -83.917103 -39.265257 -17.778986 -7.808695 -3.333902 -1.386348 -0.562474 -0.223018 -0.086541 -0.032910 -0.012280 -0.004501 -0.001622 -0.000575 -0.000201 -0.000069 -0.000024 -0.000008 -0.000003 53223.994599 51196.319920 49004.950905 45758.725672 43339.719215 41115.644886 38813.689191 36813.807194 34957.181284 34004.076507 32522.096182 30342.637171 27446.142527 23883.264664 19812.690827 15652.679999 11817.730189 8605.140961 6098.912666 3958.647410 2451.766452 2403.872856 1611.777110 -3656.009008 -7590.391459 -5012.826287 -3369.260852 -2129.192103 -1257.082178 -703.414562 -375.600706 -192.295723 -94.739359 -45.053643 -20.735271 -9.257217 -4.017443 -1.698008 -0.700163 -0.282106 -0.111225 -0.042968 -0.016284 -0.006061 -0.002218 -0.000798 -0.000283 -0.000099 -0.000034 -0.000012 -0.000004 9.576272 22.710544 51.103845 106.429382 204.750386 363.396248 592.940498 884.085342 1186.879005 1345.279498 1167.824717 869.488197 610.106183 383.119692 222.103905 121.019907 62.452483 30.692123 14.426484 6.509197 2.828181 1.186657 0.482029 0.189987 0.072801 0.027169 0.009890 0.003516 0.001223 0.000416 0.000139 0.000045 0.000015 0.000005 0.000001 0.000000 0.000000 0.000000 0.000000 0.000000 0.000000 0.000000 0.000000 -0.000000 -0.000000 -0.000000 -0.000000 -0.000000 0.000000 0.000000 0.000000 8.934414 21.493019 48.329473 100.629084 193.422087 342.281141 554.540452 813.247424 1055.588801 1172.206354 1087.453741 872.647477 617.721029 394.521827 233.717321 129.981306 68.434772 34.310442 16.454402 7.576122 3.359678 1.438949 0.596715 0.240116 0.093943 0.035798 0.013306 0.004832 0.001716 0.000596 0.000203 0.000068 0.000022 0.000007 0.000002 0.000001 0.000000 0.000000 0.000000 0.000000 0.000000 0.000000 0.000000 0.000000 -0.000000 -0.000000 -0.000000 -0.000000 0.000000 0.000000 0.000000 -0.000001 -0.000000 -0.000001 -0.000000 -0.000001 -0.000000 -0.000000 -0.000000 -0.000000 -0.000000 -0.000000 -0.000000 -0.000000 -0.000000 -0.000000 -0.000000 -0.000000 -0.000000 -0.000000 -0.000000 -0.000000 -0.000000 -0.000000 -0.000000 -0.000000 -0.000000 -0.000000 -0.000000 -0.000000 -0.000000 -0.000000 -0.000000 -0.000000 -0.000000 -0.000000 -0.000000 -0.000000 -0.000000 -0.000000 -0.000000 -0.000000 -0.000000 -0.000000 -0.000000 -0.000000 -0.000000 -0.000000 -0.000000 -0.000000 -0.000000 -0.000000 -0.000000 -0.000000 -0.000000 -0.000000 -0.000000 -0.000000 -0.000000 -0.000000 -0.000000 -0.000000 -0.000000 -0.000000 -0.000000 -0.000000 -0.000000 -0.000000 -0.000000 -0.000000 -0.000000 -0.000000 -0.000000 -0.000000 -0.000000 -0.000000 -0.000000 -0.000000 -0.000000 -0.000000 -0.000000 -0.000000 -0.000000 -0.000000 -0.000000 -0.000000 -0.000000 -0.000000 -0.000000 -0.000000 -0.000000 -0.000000 -0.000000 -0.000000 -0.000000 -0.000000 -0.000000 -0.000000 -0.000000 -0.000000 -0.000000 -0.000000 -0.000000 -0.000000 -0.000000 -0.000000 -0.000000 -0.000000 -0.000000 -0.000000 -0.000000 -0.000000 -0.000000 -0.000000 -0.000000 -0.000000 -0.000000 -0.000000 -0.000000 -0.000000 -0.000000 -0.000000 -0.000000 -0.000000 -0.000000 -0.000000 -0.000000 -0.000000 -0.000000 -0.000000 -0.000000 -0.000000 -0.000000 -0.000000 -0.000000 -0.000000 -0.000000 -0.000000 -0.000000 -0.000000 -0.000000 -0.000000 -0.000000 -0.000000 -0.000000 -0.000000 -0.000000 -0.000000 -0.000000 -0.000000 -0.000000 -0.000000 -0.000000 -0.000000 -0.000000 -0.000000 -0.000000 -0.000000 -0.000000 -0.000000 -0.000000 -0.000000 -0.000000 -0.000000 -0.000000 -0.000000 -0.000000 -0.000000 -0.000000 -0.000000 -0.000000 -0.000000 -0.000000 -0.000000 -0.000000 -0.000000 -0.000000 -0.000000 -0.000000 -0.000000 -0.000000 -0.000000 -0.000000 -0.000000 -0.000000 -0.000000 -0.000000 -0.000000 -0.000000 -0.000000 -0.000000 -0.000000 -0.000000 -0.000000 -0.000000 -0.000000 -0.000000 -0.000000 -0.000000 -0.000000 -0.000000 -0.000000 -0.000000 -0.000000 -0.000000 -0.000000 -0.000000 -0.000000 0.000000 -0.000000 0.000000 56476.866167 54978.783095 52734.115732 51126.437658 49342.195150 47461.734782 45397.213117 43249.602136 41213.146701 38954.021308 37175.934523 56301.185129 55890.448884 52798.501673 51338.562044 48807.096402 46849.778083 44588.641093 42499.342176 40318.718989 38382.130745 36387.722055 55218.737567 54850.162771 53382.385258 50568.233329 49010.963821 46610.737935 44212.628955 41910.466188 39490.233108 37608.505585 35530.059710 55166.418653 54836.279182 52324.365246 50286.435231 48698.609086 45816.992416 44038.074146 41618.922063 39142.386541 36982.942403 34538.424426 54787.964410 54556.286018 52498.380127 49880.819470 47456.884489 44931.974565 42796.337293 40211.397097 37967.876093 35943.392729 33628.190939 54112.204690 53596.007491 51315.601557 48868.616684 47203.972401 44452.395236 41926.241336 39334.320484 36814.152336 34539.383946 32135.840836 53363.404240 52972.855385 50771.692412 48065.411445 45851.189517 42883.476129 40597.109937 38058.368694 35504.901989 33271.814991 30817.197583 52588.612350 52125.310252 49744.537141 46899.195634 44775.904869 41868.881152 39339.457500 36561.432156 33935.236769 31642.574152 29132.569521 51379.832920 50790.664843 48470.006046 45679.791765 43463.497396 40411.126667 37791.602364 35038.870064 32419.668982 30079.639440 27515.137379 50508.351250 49798.121715 47369.395262 44389.074102 41975.727746 38870.459152 36231.678227 33445.124049 30726.671557 28236.619766 25553.753674 49126.104995 48298.265745 45807.296990 42895.406454 40459.000884 37321.261205 34619.624221 31687.688527 28841.992125 26442.038824 23940.917349 47791.202661 46976.459892 44367.162948 41415.040758 38873.063478 35657.689634 32825.189860 29819.696036 27202.614385 24810.563909 21805.145567 46272.178219 45492.141698 42792.700198 39813.527008 37234.482647 33935.563082 30996.279534 28136.501686 25232.260460 22040.943137 19343.063750 44685.826080 43995.778241 41228.345891 38226.364301 35600.426435 32175.097946 29236.614902 26223.896812 22629.748633 20673.282878 18118.830845 43192.051729 42561.124084 39695.366402 36667.486219 33983.805076 30445.998207 27519.501685 24097.131997 20913.376350 18646.383347 12977.665680 41770.325888 41176.372892 38234.180670 35174.369249 32435.432458 28797.558771 25807.282185 21988.267656 19276.974900 14462.796156 20182.640227 40482.581501 39921.455243 36898.603081 33792.815544 31003.228645 27266.841688 24182.265391 20204.925682 17471.686846 11234.264071 15876.711917 39357.682836 38799.438269 35703.601551 32557.761595 29715.720591 25897.971132 22691.001519 18714.771766 15452.180425 10029.179616 10535.732328 38394.515621 37830.610698 34681.672406 31490.889931 28592.250571 24733.243798 21404.891398 17532.448746 13706.047094 9077.276864 7387.420325 37608.427973 37027.147783 33826.330321 30592.320845 27645.613017 23771.247743 20361.581223 16565.904950 12524.424372 8300.245273 5753.609918 36977.860930 36371.485606 33126.778872 29861.287822 26877.885134 22990.134427 19552.845097 15799.393595 11737.903030 7732.802222 4925.249629 36485.223332 35855.668533 32574.769285 29281.442469 26270.746617 22370.895898 18929.209411 15219.458693 11191.361211 7346.560534 4492.032577 36109.835177 35459.556526 32148.313776 28830.305550 25799.511426 21893.648868 18454.473657 14783.668863 10805.970285 7078.858743 4240.327122 35830.746150 35163.029070 31827.711926 28489.580569 25442.588367 21533.152550 18099.998645 14460.892236 10530.813008 6890.422945 4082.556269 35632.554559 34950.744591 31596.412198 28241.753814 25181.519690 21268.551835 17840.919696 14226.643961 10336.084762 6758.408910 3979.239968 35502.921088 34809.417699 31440.181917 28071.582516 25000.338957 21083.527549 17659.166845 14062.111599 10200.818891 6666.797067 3910.375518 35432.358444 34728.372647 31347.453938 27966.649352 24885.641378 20964.015706 17540.296089 13953.605730 10111.664161 6605.994937 3865.501815 35412.757490 34698.494162 31308.225222 27915.990445 24825.636592 20897.684299 17471.685208 13889.231803 10057.907635 6568.588300 3837.861210 35434.419305 34709.219186 31311.966826 27909.247760 24809.647675 20873.402103 17442.214824 13858.723342 10030.719996 6548.534364 3822.525728 35488.532649 34750.900202 31346.947180 27934.458600 24827.265073 20881.134018 17441.839346 13852.865589 10022.482158 6540.672148 3815.540704 35564.085705 34817.473083 31407.732565 27981.278440 24867.226020 20911.458483 17461.861197 13863.665027 10026.714413 6540.673348 3813.694085 35645.520873 34890.858684 31484.016228 28044.444896 24920.345876 20955.215357 17494.773206 13884.580771 10038.284138 6545.241877 3814.582122 35737.570848 34967.117871 31556.201220 28112.608817 24979.038825 21003.898836 17533.822619 13910.311252 10053.401113 6552.205354 3816.703474 35818.486679 35041.781709 31612.869789 28169.444263 25032.025209 21048.024735 17572.046478 13936.010636 10069.151059 6560.277767 3819.394094 35862.039166 35085.854165 31638.661418 28201.289849 25063.962427 21075.415570 17600.655797 13955.931250 10082.508759 6568.382674 3822.471705 35862.311432 35075.532729 31616.780674 28195.622696 25057.903485 21073.093005 17608.783621 13962.475823 10089.275615 6574.718185 3825.623104 35785.188421 34997.771707 31545.882376 28138.822515 25000.882541 21031.622066 17585.803237 13947.358644 10084.131290 6576.287988 3827.861635 35631.971875 34871.729594 31423.303209 28022.697560 24894.223611 20947.330539 17524.147943 13903.968779 10061.905130 6569.530346 3827.585748 35429.353648 34719.263884 31263.901560 27877.534879 24761.227027 20829.114320 17426.353139 13830.405568 10018.511371 6550.909610 3822.987274 35179.365695 34524.012246 31068.018094 27717.712168 24615.507603 20696.397669 17311.441131 13736.470301 9954.879757 6517.696418 3811.888181 34953.765476 34346.434846 30855.751528 27535.124454 24442.905472 20543.316842 17184.678942 13634.319208 9880.818130 6472.357803 3792.936399 34712.217466 34150.293319 30655.259098 27392.226483 24302.073425 20394.595389 17039.647960 13513.776679 9797.361443 6420.759899 3769.109228 34354.843346 33713.430142 30226.943770 27088.917643 24118.936085 20284.093659 16926.568970 13388.632700 9691.514469 6355.898148 3742.929291 34094.864830 33488.836114 30019.104919 26760.238061 23741.081911 20058.244540 16805.459831 13298.830626 9585.239116 6267.047993 3704.146559 33452.260895 32855.700940 29720.699005 26709.756881 23526.176242 19805.689626 16575.580942 13169.937832 9506.553412 6174.065017 3641.303855 33201.744643 32495.127234 29074.262719 26222.239856 23291.080388 19656.947851 16384.533264 12947.081781 9397.743160 6096.591151 3568.825970 32806.130340 32419.405822 28983.611167 25745.231625 22912.089099 19418.130548 16252.134426 12759.187647 9206.808201 5998.578349 3509.221629 33342.385991 32461.444137 28544.244682 25280.686010 22415.071465 19095.942804 15991.898735 12657.976667 9004.480172 5841.435193 3451.435185 35553.557964 30661.738813 27431.599212 24710.552466 21960.729929 18678.865415 15542.308342 12479.834654 8850.011165 5656.790501 3372.403628 27336.083412 24631.564974 26025.513275 23879.137719 21630.614696 18345.878614 15113.117664 12156.400165 8655.742870 5474.100863 3284.569706 22786.961921 22755.377717 25846.891290 22958.930750 20841.099996 17866.105947 14794.822304 11849.716634 8388.908362 5249.497750 3201.274128 24982.551772 25206.641172 25744.363613 22488.379404 20145.861858 17186.621751 14429.368436 11533.110043 8162.784377 4971.571000 3089.401179 25873.088376 25775.061755 25461.813176 21740.735520 19313.309051 16551.064387 13983.079708 11065.775546 7979.398833 4715.549065 2924.469128 32441.747867 28266.701339 23712.025370 20739.251375 18394.257036 16117.672506 13402.792948 10494.899145 7692.084829 4502.735520 2736.220586 29941.424030 20057.657403 18071.836646 19344.496598 17393.449144 15654.688817 12862.530253 10008.315135 7292.170231 4251.671450 2533.343498 22543.060846 16142.474569 16343.480231 19167.059697 16447.557149 14785.887884 12200.197276 9602.753963 6907.801709 3960.797531 2275.925327 20311.957794 18197.396616 18590.878832 18655.267501 15902.007407 14057.561651 11397.991926 9145.793462 6472.650232 3716.454611 1985.142390 19735.132756 18379.114076 18536.967090 18226.342193 15162.840882 13230.519670 10665.670347 8593.712502 5904.957079 3485.002242 1745.684628 21390.358517 24056.180947 20784.239618 16813.766141 14160.007485 12273.607709 10132.272103 7934.138112 5319.660973 3154.728380 1560.347149 20404.478749 21945.357036 13622.505023 12298.969019 13019.152940 11092.486253 9517.820694 7280.475824 4844.210261 2769.900628 1350.992436 15754.075462 15560.794862 10753.403337 11135.664441 12871.032439 10083.742570 8664.100420 6486.450189 4415.409578 2425.546763 1133.121488 13244.982435 14049.396325 12423.964043 12754.912509 11893.863231 9455.330194 7967.749800 5620.931381 3987.703578 2037.012881 989.055207 12195.188903 13718.776922 11847.838236 11847.993746 11293.623928 8700.529602 7201.436147 4919.501984 3559.907070 1591.433500 872.656249 11854.401609 15496.099839 16488.459089 13371.633117 10269.837569 7824.750033 6350.120648 4509.017673 3088.795367 1248.739042 682.355491 10931.641015 15395.504757 15682.678523 7982.836306 7088.820579 7178.311100 5306.625769 4092.799335 2618.211103 1058.215781 479.651412 9142.744562 11833.491603 11027.130884 6459.989134 6695.491596 7227.208148 4614.974536 3634.821141 2090.694410 918.886570 360.011715 7727.248717 9949.337479 9875.621661 7918.247929 7834.205223 6252.428709 4299.833291 3334.167368 1588.200430 865.115454 232.330032 6870.477577 9260.128280 9686.373395 7103.215492 6799.169124 6026.043959 3906.410994 3016.892594 1290.280088 883.071392 55.428660 6306.689548 9239.490058 11528.165502 11135.625823 7992.589405 5551.909883 3509.995841 2626.151715 1319.773869 834.294234 -32.511892 5683.550545 8738.983689 12008.442353 11337.313208 4213.189845 3816.002090 3592.875515 2076.230780 1419.210115 739.552938 28.935455 4896.178256 7368.103753 9217.821984 8096.039978 4140.087339 4207.452647 3965.358363 1965.442707 1548.786598 655.665848 147.956551 4170.751634 6244.847583 7750.567896 7279.215366 5729.465668 5287.272123 3468.188508 2205.544775 1778.669753 603.757027 301.540091 3627.624139 5576.016106 7241.377799 7145.302740 4975.604696 4672.492072 3717.352442 2329.289891 2022.461832 667.478844 499.654287 3216.472919 5165.785942 7351.382937 8860.950074 8470.528870 6071.513590 4074.720896 2480.028941 2140.537896 1004.273068 661.189325 2834.352917 4701.379355 7066.684639 9514.880562 9065.761997 3245.317674 3634.042340 3216.253497 2100.957027 1430.799888 722.620620 2439.653593 4067.525501 5965.106947 7221.692103 6607.287887 4336.073741 4543.019710 3794.199890 2444.529900 1818.266448 699.984004 2072.725731 3466.267360 5046.283001 6063.810458 6107.625038 6182.880423 5841.568738 3829.567306 2956.573600 2167.021173 717.263868 1772.201801 3015.713552 4506.316075 5678.307423 5997.073737 5814.600370 6002.121329 4510.491552 3159.969827 2568.887987 849.172706 1532.129631 2681.093996 4198.685926 5831.399315 7378.211822 8408.174364 7344.391998 5149.185748 3409.383440 2784.335405 1121.804158 1323.099200 2372.196352 3851.451520 5677.393792 7966.992817 8926.483371 5085.021878 5237.984807 4182.916036 2768.914333 1453.612211 1127.115084 2046.766030 3345.490432 4810.844396 6055.280534 6678.710129 6348.457629 6303.749719 4501.338399 3050.376204 1726.525239 948.423186 1737.677586 2849.526106 4074.667428 5133.484746 6386.440262 8044.619579 7375.295244 4590.092565 3298.241796 1938.941282 796.692721 1480.572679 2468.102569 3620.206601 4773.934219 6234.084038 8191.929786 7956.149916 4780.746466 2891.566034 2247.431672 672.162793 1273.709249 2179.432864 3337.562047 4757.007567 6844.103222 9299.840025 8541.811358 5153.880834 2735.267970 2471.926755 567.017517 1093.982668 1914.639305 3032.272367 4536.614479 6935.697198 9080.628336 6894.284719 4666.367221 3004.465855 2436.772369 474.200467 925.882942 1639.055508 2615.472953 3833.744462 5321.642571 6554.206547 6247.165497 5297.914655 2797.607850 2437.186526 392.037881 771.820125 1376.010366 2206.175008 3237.359060 4529.070706 6106.542779 6836.725851 5425.357963 3021.140383 2372.103810 321.839303 639.837022 1153.509998 1876.591031 2814.676033 4085.735483 5829.964344 6905.113948 5415.161100 2941.111971 2169.941024 263.918665 531.761478 974.511945 1617.833156 2479.776142 3662.153021 5361.435206 6844.797672 5643.086036 3013.243370 1811.798876 216.550535 443.068366 826.714047 1400.082079 2180.709697 3215.000390 4587.885554 5856.342155 5446.093602 3091.083726 1492.593197 177.314467 368.201038 698.526279 1204.318864 1904.270191 2810.643593 3885.471969 4700.000587 4447.473438 2885.727088 1549.186059 144.434332 304.033277 585.807878 1028.689501 1660.487498 2495.463781 3460.256613 4173.531443 3949.505367 2842.832459 1946.896344 116.955222 249.512116 488.649128 876.530726 1454.113083 2254.872105 3220.075206 3935.544444 3648.240082 2746.902113 2025.456164 94.204697 203.761496 406.002967 745.015158 1271.431231 2037.642805 3055.060661 4122.488071 4496.178636 3259.044590 2039.303148 75.414710 165.254653 334.538366 625.763921 1089.386330 1775.412274 2715.940858 3915.094489 4643.938275 3560.227930 2466.250195 59.792947 132.377963 271.062882 512.779676 897.938523 1449.703001 2124.785948 2762.732455 2884.406766 2353.998186 3021.614186 46.754303 104.201303 214.717935 407.874986 712.391371 1133.010763 1615.519421 2074.329959 2514.612845 2858.076097 3025.780547 35.991272 80.544002 166.574993 317.178480 553.947474 880.469991 1269.857973 1725.271916 2367.464147 2942.288861 2855.061700 27.354456 61.473797 127.727203 244.628986 430.860290 695.505183 1033.525450 1468.778963 2122.850557 2849.012331 3013.735762 20.716790 46.908611 98.251000 190.228446 340.291717 562.176152 861.961825 1255.995946 1816.013730 2457.069719 2567.883004 16.000003 36.669360 77.609467 152.288598 277.005908 467.017046 731.142939 1070.114231 1476.513894 1847.621668 1697.059775 35306.693212 33118.014599 30634.167248 27770.047009 24375.610503 20585.542564 16685.749060 12948.033195 9636.942934 6906.332060 4691.630603 3348.976747 -824.210847 2350.296402 33921.943027 31321.471778 28473.877225 25527.496317 22412.946197 19178.284675 15896.859433 12680.700322 9711.671205 7132.250784 4811.357903 3688.358019 2538.462654 1673.479945 33531.579396 31157.643387 28517.767092 25740.788886 22804.374076 19744.815534 16586.147756 13421.603413 10418.987855 7823.346678 5489.208184 3209.690889 1851.162148 998.161332 32074.069808 29487.009531 26791.415628 24157.275531 21534.637121 18874.160895 16097.634075 13238.224898 10400.339298 7778.894828 5711.939945 3826.305643 2110.207914 1210.419848 31336.247765 28704.327084 25986.342427 23390.128315 20891.340850 18427.675734 15862.920357 13177.839985 10493.754890 7888.909130 5574.894611 3701.676484 2148.485121 1144.715154 29684.783135 27049.549337 24427.022507 22007.800421 19759.834275 17591.470656 15321.375137 12866.097505 10334.085397 7904.198101 5683.969834 3722.150180 2092.897347 1143.235252 28314.393867 25633.096616 23022.598728 20692.005119 18616.794403 16674.492936 14648.857010 12425.787209 10047.304120 7690.739147 5555.891400 3698.838450 2100.669756 1114.983297 26598.546542 23953.721610 21421.874582 19229.263238 17348.139381 15635.505006 13843.988511 11843.793244 9668.449319 7456.819178 5388.242683 3571.268662 2014.102482 1078.835934 24952.966003 22264.200510 19760.873750 17663.356157 15932.200081 14412.502370 12838.674456 11051.824055 9071.696805 7039.889857 5123.739140 3420.521221 1933.309625 1026.172126 22897.193195 20276.123145 17886.988874 15937.893551 14367.289712 13015.742219 11631.640226 10056.542747 8289.243316 6451.665064 4704.020556 3144.957403 1775.923966 945.536804 21420.053966 18707.120057 16202.054905 14192.835203 12664.318501 11423.224708 10191.649647 8812.455674 7276.473281 5679.412182 4154.445887 2786.846299 1575.778522 839.860266 18704.482153 16011.395182 13796.876756 12018.191341 10613.278607 9502.313921 8449.597521 7294.791168 6021.910451 4704.550697 3447.439685 2318.623700 1313.564088 704.396406 17500.747231 15040.167142 12241.249655 10081.374480 8590.379766 7496.975977 6547.358995 5589.833824 4584.875675 3571.180414 2615.922574 1764.355727 1002.788720 541.655135 13628.373371 10022.102801 7996.161436 6662.026504 5454.947026 4618.925533 3957.376502 3347.771787 2742.372043 2143.242375 1579.684669 1073.771765 606.489177 355.804468 20800.238219 18262.657704 10907.757027 6712.433468 4333.269827 3152.698869 2525.243176 2089.387800 1710.747296 1349.533992 1008.166790 698.401820 427.235562 335.130666
</DataArray>
<DataArray type="Float64" Name="Velocity" NumberOfComponents="3" format="ascii">