<VTKFile type="PolyData">
<PolyData>
<Piece NumberOfPoints="1945" NumberOfVerts="1945" NumberOfLines="0" NumberOfStrips="0" NumberOfPolys="0">
<PointData>
<DataArray type="Float64" Name="Pressure" format="ascii">
 15125.807041 14558.373874 17474.649923 17087.757578 18177.618352 17477.380245 15926.888311 14995.472407 17415.749484 17510.224770 18160.937046 18724.767621 16896.256223 17067.945004 16317.419382 15997.669563 17133.751678 18190.595097 16617.734128 16888.146485 16059.593269 16874.169859 16733.436796 18539.649167 17706.704470 21102.576737 17104.934771 19148.224651 18435.017914 21078.561855 18505.440880 21445.555327 17497.247531 19388.960318 18336.575234 20123.695434 19981.164878 22729.212954 19116.223250 20688.348859 19223.275406 20240.582643 19626.980443 21555.219893 19424.130980 20356.254333 20119.580637 21337.828346 20960.878371 23640.854941 19703.734756 21302.743523 21895.327451 24074.086207 22106.597175 22894.121482 21922.828693 24175.102592 21422.562919 23611.504429 22388.835375 24414.335322 23701.093009 26561.562784 22999.488813 25118.218057 22806.872231 25543.084064 23215.700372 25661.467563 23512.922305 26060.978959 23948.249928 26104.365384 23967.705872 25183.073158 24332.918857 25768.261615 22977.552070 23539.730440 23228.440871 22589.367436 26238.822574 25310.951010 27897.833224 26473.353756 25643.785211 22889.356313 25633.920808 23841.476457 25705.555181 23935.564574 25017.504304 22739.836764 27464.622419 26505.888298 29103.675149 25599.513409 32659.646065 28314.346740 36383.645158 43541.817465 35756.957956 35189.081841 33523.038906 32201.490312 33097.743739 33773.240222 33726.273092 33157.210670 33149.998141 32780.534714 32551.897497 33332.178089 32652.714426 33877.802811 32627.733679 33262.353699 32642.955433 33042.868656 32655.425164 33690.186322 31816.267717 32609.685509 30166.050495 30150.412336 28458.267069 28307.216355 26942.948215 26945.550720 25501.971916 25448.393947 24165.853475 24014.404527 23056.123306 22829.951078 22250.384443 22085.465204 21674.525510 21676.488417 21152.607565 21283.233954 20551.125127 20697.490399 19859.875979 19970.594379 19136.589082 19259.264290 18405.302328 18598.192359 17632.961797 17894.046313 16781.853624 17061.317125 15856.930872 16108.883935 14901.622661 15115.402828 13961.090362 14150.821828 13056.802107 13236.000452 12189.447963 12359.764995 11354.851228 11511.704729 10553.389739 10694.803254 9788.489057 9916.707942 9061.758677 9179.086429 8371.745544 8477.414428 7716.416654 7807.446509 7095.727335 7169.670089 6511.979798 6568.692480 5968.405764 6010.042916 5467.490757 5497.481458 5010.026120 5031.968253 4595.030442 4611.941412 4220.260587 4234.226713 3882.983517 3895.129722 3580.737274 3591.433365 3311.868217 3321.065447 3075.723555 3083.285925 2872.512678 2878.433820 2702.964749 2707.443304 2567.943153 2571.340536 2468.261554 2470.516336 2404.988367 2405.840597 2377.943128 2378.590828 12729.404409 11222.449361 9139.679003 7315.594727 5533.426546 3349.614445 968.370522 1013.544474 2114.339611 10.460300 -3798.585544 -2853.289812 -759.822669 -673.624330 -4276.882790 -5589.112688 -4125.207036 -4407.575102 -8284.101464 -9678.183703 -8862.680612 -8413.498013 -7991.921981 -7567.492963 -7127.518366 -6667.497407 -6188.752713 -5696.584498 -5198.507501 -4702.888326 -4217.937485 -3751.023631 -3308.265191 -2894.342576 -2512.473267 -2164.498837 -1851.042297 -1571.703247 -1325.266331 -1109.905267 -923.370496 -763.153211 -626.622313 -511.133702 -414.113343 -333.116847 -265.869357 -210.291895 -164.534008 -127.114996 -97.856910 14718.377149 13560.121237 10836.804843 8314.648915 7346.938774 4686.144223 667.936200 1221.852711 2988.316972 483.657662 -4412.372962 -3010.889490 -286.929782 407.068099 -4070.687352 -6160.540332 -3841.896841 -2528.512835 -5716.063158 -9078.587115 -8678.891343 -8326.241152 -7974.318825 -7562.031744 -7123.974991 -6664.619675 -6186.891674 -5696.134583 -5199.654063 -4705.615984 -4222.086251 -3756.346351 -3314.474819 -2901.147068 -2519.599135 -2171.705460 -1858.129184 -1578.512188 -1331.680006 -1115.843585 -928.785634 -768.024108 -630.949134 -514.932657 -417.412036 -335.950115 -268.274627 -212.297801 -166.103306 -127.799353 -94.648209 2401.042093 2387.031758 2362.824351 2323.493840 2264.950669 2183.741527 2077.428196 1943.685141 1769.434185 1490.626784 1094.196690 947.498204 930.240762 855.544990 778.751146 706.442368 637.730068 572.204379 509.874472 450.986533 395.868505 344.825453 298.079165 255.741128 217.808485 184.174339 154.645789 128.964966 106.829956 87.913717 71.880058 58.396356 47.143094 37.820548 30.153054 23.891306 18.813119 14.723058 11.451246 8.851637 6.799951 5.191456 3.938704 2.969323 2.223922 1.654152 1.220945 0.892922 0.644925 0.456253 0.306597 2374.266652 2360.271246 2334.547501 2293.524724 2233.198502 2149.744724 2039.185202 1895.370939 1707.386905 1469.046466 1218.039832 1054.656131 947.301248 858.416513 780.039189 707.251012 638.377322 572.821831 510.525974 451.697704 396.640860 345.646186 298.928333 256.596697 218.649595 184.983184 155.408473 129.671666 107.474643 88.493645 72.395151 58.848584 47.535901 38.158353 30.440845 24.134309 19.016558 14.891974 11.590376 8.965335 6.892151 5.265651 3.997956 3.016277 2.260839 1.682940 1.243200 0.909996 0.658162 0.468326 0.329400 -78.684095 -70.114573 -73.556016 -65.780427 -59.986731 -56.019878 -44.931130 -44.563652 -34.282218 -34.415475 -26.134769 -26.312541 -19.836390 -19.988947 -14.978126 -15.100300 -11.249549 -11.345592 -8.403980 -8.478820 -6.244669 -6.302593 -4.615446 -4.659996 -3.393161 -3.427213 -2.481357 -2.507225 -1.804995 -1.824527 -1.306092 -1.320751 -0.940138 -0.951074 -0.673193 -0.681303 -0.479544 -0.485523 -0.339837 -0.344218 -0.239594 -0.242786 -0.168058 -0.170370 -0.117282 -0.118948 -0.081434 -0.082627 -0.056260 -0.057109 -0.038674 -0.039276 -0.026454 -0.026878 -0.018006 -0.018303 -0.012196 -0.012403 -0.008221 -0.008364 -0.005515 -0.005614 -0.003682 -0.003750 -0.002447 -0.002493 -0.001618 -0.001649 -0.001065 -0.001086 -0.000698 -0.000712 -0.000455 -0.000465 -0.000296 -0.000302 -0.000191 -0.000195 -0.000123 -0.000126 -0.000079 -0.000081 -0.000050 -0.000051 -0.000032 -0.000033 -0.000020 -0.000021 -0.000013 -0.000013 -0.000008 -0.000008 -0.000005 -0.000005 -0.000003 -0.000003 -0.000002 -0.000002 -0.000001 -0.000001 -0.000001 -0.000001 -0.000000 -0.000000 -0.000000 -0.000000 -0.000000 -0.000000 -0.000000 -0.000000 -0.000000 -0.000000 -0.000000 -0.000000 -0.000000 -0.000000 -0.000000 -0.000000 -0.000000 -0.000000 -0.000000 -0.000000 -0.000000 -0.000000 -0.000000 -0.000000 -0.000000 -0.000000 -0.000000 -0.000000 -0.000000 -0.000000 0.000000 0.000000 0.000000 0.000000 0.000000 0.000000 0.000000 0.000000 0.000000 0.000000 0.000000 0.000000 0.000000 0.000000 0.000000 0.000000 0.000000 0.000000 0.000000 0.000000 0.000000 0.000000 0.000001 0.000001 0.000001 0.000001 0.000002 0.000002 0.000003 0.000003 0.000006 0.000006 0.000011 0.000011 0.000019 0.000020 0.000034 0.000035 0.000059 0.000061 0.000102 0.000104 0.000173 0.000177 0.000292 0.000298 0.000487 0.000497 0.000805 0.000821 0.001315 0.001341 0.002129 0.002168 0.003410 0.003471 0.005409 0.005502 0.008496 0.008635 0.013213 0.013420 0.020350 0.020654 0.031044 0.031479 0.046925 0.047502 0.070385 0.070875 0.105349 0.103977 0.161870 0.145693 0.218121 0.185256 0.243807 0.207611 16561.061844 14463.590057 17529.001242 15384.443566 12580.231075 13188.419254 16234.600866 11720.518704 10476.385257 14992.270763 9958.775198 13619.809160 14335.170220 16529.271434 14534.828367 4461.024184 13483.876494 11036.536619 10209.567649 10323.953686 11328.903054 12743.000955 17285.044020 15370.454382 15596.796704 14906.522839 15830.135701 12058.118810 12136.509764 10545.029532 4538.255865 8642.660377 15413.683934 18833.955112 16867.189528 16518.733062 17354.361813 17241.876890 16679.840819 11544.935375 7665.119289 14977.999666 13560.971551 10616.192301 19321.186835 14290.660239 20952.907853 18015.863148 17081.970450 13056.798174 15152.669731 13854.706809 8168.210926 12928.633806 11314.766468 21587.221808 18585.708928 18365.123712 19052.623040 15880.855971 15243.504579 16716.048425 15743.942563 10970.450681 6908.913890 14351.392371 18366.838318 18966.623973 18262.318169 19618.936076 14898.507952 17156.300404 17551.054768 19358.940390 15513.469128 18859.309926 15952.962432 19839.632784 19365.775833 17240.093225 19788.623044 20382.824222 11890.946103 18651.628380 15388.537356 15357.146442 15874.882162 10096.572863 18795.779919 19905.808376 18969.477248 15802.147924 20226.255140 18713.959276 17938.200688 20495.092383 16934.621674 13157.226369 13629.624514 21848.864211 23960.843939 19724.485299 21370.995310 17893.740700 20956.670818 17942.560922 19376.544863 13861.907692 13831.570078 10191.803579 21962.573740 20255.064660 20547.960237 17684.221227 22670.712388 19406.874882 19838.923922 13122.986640 13031.587371 7894.287395 9085.520424 23322.170890 22233.399554 22239.923422 22014.462835 18842.739898 17299.710644 13202.861792 17072.773103 12823.547975 15883.829940 15995.821421 25149.953374 20595.028620 18915.621914 18696.711601 19829.348516 17999.643415 16704.542487 15308.268418 13344.240570 15891.798320 9981.515955 21629.563418 21810.254320 20891.252141 22727.945068 23428.624313 19810.781445 20260.736834 15512.906665 19448.245569 7483.874823 3943.881813 25737.658783 20259.859064 24264.635731 22449.589836 23398.678034 18362.609987 17000.870108 16058.453750 6977.032009 8221.006914 5903.895705 25769.680139 23057.439073 22422.235300 16596.398244 18246.429656 13788.744281 11922.471808 10774.183996 3677.439500 2227.915888 6190.653353 23938.693207 23008.946599 16894.322908 19351.978359 19351.319153 18305.336825 10609.033538 16552.997283 1179.851388 1021.624349 1090.788392 24601.885700 22439.651613 22286.719039 18905.780659 9181.394983 7208.165558 13006.816860 5816.428451 6362.854235 2499.023787 3163.509316 23193.489674 22323.581181 20818.914204 16857.726604 14201.838404 15037.575759 7837.356040 6410.426752 5038.499712 1427.308112 3685.094887 23054.919736 21973.734119 19209.053750 18821.696841 12591.822163 13227.528512 9000.861872 2293.211805 1235.674386 5085.853220 1793.210035 25193.398539 23093.980809 20257.846348 18401.186080 12621.430372 9911.851229 6327.311918 2572.496953 842.290916 3314.536489 1038.893636 21912.252069 22570.695024 21895.080315 18107.985253 12540.393968 4003.958448 2419.668360 1214.185902 9419.216205 5718.758722 1480.185630 22826.908140 23436.589933 20325.046801 17834.381166 8329.321730 11794.325981 8752.003991 4928.869131 2267.974727 6484.694972 1345.845343 25901.653395 18328.468120 18986.296031 15999.934199 12347.629961 9146.962275 6592.692568 3230.900697 3235.619220 2770.994859 1957.218346 22799.635282 20547.647815 20516.691541 16445.684467 15234.997275 10405.408998 8956.251880 3986.668188 3680.543274 3762.806370 3247.258768 23322.642503 22698.832556 17450.982796 16484.684669 14545.184944 11199.224966 8411.817062 8870.358030 5135.417166 4474.250844 3859.502108 19486.087685 23488.795981 15613.353740 14840.127088 12875.488461 11269.979943 9415.404703 3536.735319 5661.963466 6099.110900 6073.920556 21672.494641 19830.228079 19527.154615 17170.210333 13871.187991 14352.126135 11073.819862 9441.163644 6492.363376 750.775079 2007.241927 22036.974719 20563.754584 16234.434131 20013.724469 16107.391572 8588.223872 8484.487242 5810.104756 11293.707085 6137.518704 5174.747822 19653.241029 21462.784513 20922.413056 14581.462132 14268.966233 10773.748479 7693.782113 9887.433791 6839.834198 3676.967939 7061.694137 22093.847336 17382.800008 18264.498025 14752.609958 12695.438094 8623.814422 11838.726063 6115.209153 5470.731683 603.156284 622.717097 21020.200351 19125.657128 17914.800211 15774.791405 13812.911498 11463.073373 15390.434080 7952.512541 1367.693762 3381.070222 3430.911488 20715.751433 19351.671514 15533.149146 12521.683720 12687.183425 12127.411296 10060.824025 11431.044685 4011.299449 7770.143142 3957.679236 21376.683342 17458.476233 15841.160624 11842.091455 13965.562268 10837.924153 11048.792343 10097.466484 1328.499787 5049.944638 1642.707537 27287.211436 18358.123046 17078.427759 14681.812455 17226.136876 12729.221050 13441.449651 9739.687198 4617.973876 6140.162077 859.669517 22782.179112 15764.399189 13879.270699 14498.546142 16655.589319 15846.144346 10666.323360 8949.054300 3381.277329 5732.340540 5411.711718 17805.802244 18517.867510 12828.505982 16767.807736 11163.007859 9322.270298 12486.835087 5309.193451 7434.720290 3650.450168 401.488914 25865.838473 17850.176239 15007.077277 17448.554306 15160.752447 13497.693335 9043.652754 9571.884549 6558.846143 2040.885287 3669.889136 33607.056350 19464.063770 13414.190376 16855.890500 16700.962055 12788.331631 8730.665691 3715.040641 6129.797640 160.007984 1981.739913 21262.800730 18132.593508 13329.260051 16421.593987 13373.701739 8495.253432 8663.836199 4671.985227 7694.952357 1744.271166 1481.931921 12477.743767 21793.774918 14559.785424 16759.244894 13634.119872 12536.167500 11621.780401 9272.101213 5675.977201 6823.250553 1057.804992 16978.174924 -4812.355141 31060.616202 14282.610170 17247.772999 12261.517116 6345.048485 10079.479209 6490.949325 3233.507449 -1137.120313 14509.867714 7394.105972 12114.140932 14731.781257 15697.199573 11721.136944 11428.705607 10127.164983 5218.628426 36.028510 3663.411041 15892.165010 -5682.757054 15000.956324 15853.085095 14368.657625 12429.190904 10078.175213 8394.674059 9509.596071 1942.351481 2374.376842 24204.625753 14777.671316 14380.286199 13021.630164 13791.979140 15759.612791 10961.654288 5227.218415 3446.587886 4826.355776 1177.493220 -7245.112983 5241.108232 14667.358032 15134.339575 14533.760404 9998.218530 15725.199540 8235.827673 9299.096325 8342.709524 -2313.396297 20748.707335 14884.289629 2277.027825 13880.830476 20067.554253 17548.654366 16870.077692 7242.402833 7438.893765 4878.360847 3888.098966 32582.149020 10330.065617 11699.278565 12894.476613 6560.976694 10715.590656 12365.265957 9408.127244 9917.428275 9752.322083 7155.483107 10722.642505 12706.040222 15655.136578 22645.069818 13677.198249 16393.497355 11637.771967 8943.730073 8383.785246 1561.090259 -567.744288 -2740.433473 8372.052811 10796.522810 5011.837563 13268.226428 15113.574255 8254.447566 6594.478640 8287.266438 3473.404426 3287.537244 1844.555355 -1260.698665 21943.897491 6986.603450 13481.941414 14958.890890 12130.326395 6442.321782 7701.898452 4521.978390 6218.192465 18542.170336 24466.261966 -2900.493863 7057.577454 7089.888493 17001.637745 13463.664737 9864.044962 12262.506480 7743.043788 -1706.813304 27458.765936 13964.962972 -3618.474999 6319.007791 11402.346353 12884.313351 12733.759955 9158.074386 8739.610854 5472.640122 10870.347543 23849.619099 -657.934350 7223.845349 13396.203009 15396.693759 13579.689982 10318.935575 7683.907025 7113.904160 6281.505262 4138.941299 25057.117401 9744.472739 3393.538463 10863.255011 5470.007303 10093.257931 11327.895442 10943.720682 10871.629146 7634.081299 1253.210097 32175.380666 9696.134701 29048.205930 10410.683204 10551.352904 15253.123096 13870.761359 11007.610746 6607.534273 6226.293487 -1315.640164 30509.453479 13056.839848 11929.456028 5929.476738 10566.061269 16551.275199 11780.809273 12936.564719 9089.371237 -609.956768 2870.701254 32083.470949 27115.718187 2631.443539 12463.817985 9314.628810 16256.399798 14423.364955 10855.281855 14544.761182 6240.547116 -28.933589 35862.658825 34202.942892 6115.565629 -2241.329890 11611.424974 9567.416103 13872.993742 11468.937945 9130.090157 5833.953946 9998.814556 32976.637575 25694.556249 -8751.317438 1191.656985 3718.401433 15456.434325 15652.681018 11271.638367 9127.331658 5758.859701 2814.618045 27516.225565 17463.389618 -502.561438 2708.049233 3027.569918 4471.276561 12599.456060 15835.490532 9734.782886 6071.023131 5660.427614 27119.610571 26534.955102 19798.534030 16695.211638 6945.994208 10256.419609 10218.568909 13654.901226 11470.608752 7088.481782 2312.048448 26898.498664 28350.867530 18246.706798 7446.469860 5553.761461 11644.730084 11424.696907 13905.347660 9933.057521 5016.987993 5549.396539 24993.311013 23884.922125 19413.751858 13622.433474 2527.404151 11833.054224 10967.140332 11847.777230 8198.083050 8047.221454 7945.377906 23674.938077 23897.547111 20886.208443 2586.693530 7500.201954 7559.560172 6698.538077 11119.867590 8443.592987 5703.616047 183.317152 22157.243979 20650.500602 16689.784626 6123.938191 7837.972948 6112.248019 10138.652899 18123.332809 11877.402991 11016.240041 4291.912770 21645.320811 20846.583775 19522.771881 12858.753304 9246.840163 7959.583954 18717.902694 13957.728568 13574.834852 11467.219943 6381.305397 21747.436421 22082.231859 23334.751291 22820.567392 16779.341846 11115.055115 13151.648380 10865.857636 10473.027523 8670.611012 -9104.254578 21678.031830 22687.730344 25327.327129 25585.637280 7101.714380 5172.334965 9484.316333 11345.732438 11015.526468 11102.169573 727.774401 21015.147859 21514.909738 22382.008588 18110.666189 -3334.862919 4062.497905 3239.221832 10599.600196 9065.698683 15169.191423 5078.685667 20087.218496 19826.408636 18316.665924 12993.416475 2055.432685 7561.976741 3549.093500 2885.231680 13485.456404 7554.007973 2549.522981 19415.729432 19354.770845 18698.909792 16651.550210 12094.880882 8972.167830 18237.711129 15223.052069 10494.595484 8742.004402 340.953339 18999.844026 19659.730241 20881.311749 23457.418837 21246.088558 1362.138284 17059.781643 23206.526501 11906.076433 13619.831007 8623.613297 18508.095236 19677.856330 22000.852166 26349.046749 29445.868400 15864.554674 9028.967232 12169.046462 18886.384876 9743.439690 10188.710148 17714.884138 18914.520205 21201.494891 25721.352351 25195.136893 -6267.554835 -1878.533000 -736.629959 9309.469481 10206.233411 2324.551383 16666.415031 17565.933472 18928.035797 20861.307941 19925.600896 1922.637494 4149.007098 1265.187373 12183.608026 17268.867460 10797.217834 15566.652488 16219.482359 17064.048753 17877.020015 16306.896112 6916.292180 4865.502021 12237.012155 7933.641736 14070.869144 -10173.978702 14551.628975 15138.121897 16008.501376 17418.610186 20277.906003 22857.820158 12550.848496 9232.429611 9078.551489 12727.869118 6725.700135 13624.039107 14228.231043 15253.638906 17334.869371 22601.196197 31161.830996 11629.600212 4225.638647 12583.078403 6047.935716 1916.764697 12731.456097 13315.484905 14288.620450 16099.051492 19867.915526 20829.997951 -6485.235086 3682.158055 14480.289532 4191.563155 4404.354683 11849.647231 12356.716681 13093.772157 14037.933091 14927.081111 13359.729506 1754.599838 3827.123233 2640.212720 8769.098853 8835.861448 10996.752870 11434.774354 12021.672023 12642.984061 12765.039643 10692.804327 5213.102662 6158.288337 5119.260003 15252.441323 -4312.975765 10194.475954 10608.145600 11204.182767 12044.262410 13271.536828 14772.986581 15475.379004 12650.476865 8712.485639 -2002.438185 9830.847435 9440.347796 9847.239905 10473.921068 11459.774745 13289.779200 17940.361712 27096.782887 21502.928541 12622.759266 12588.832618 446.476547 8717.062713 9096.027630 9675.773824 10533.373613 11880.643754 14693.286001 15360.564963 -485.658812 14978.331033 26548.421850 9585.092678 8014.103572 8335.445491 8806.624743 9444.435810 10282.567917 11634.196081 11885.627167 5404.656636 44.613356 2961.304782 4062.851580 7335.485241 7584.213610 7931.606133 8370.808165 8911.001386 9809.113270 12200.791224 15086.048658 18441.863588 177.369385 2691.662909 6693.400978 6871.889951 7109.034464 7386.350527 7672.633720 7951.717221 8549.006850 9518.089481 3788.471462 -1169.747631 -2988.071094 6099.520720 6220.856899 6374.683522 6541.082377 6677.064356 6708.532531 6870.557249 7568.668375 9849.278812 1874.836088 9430.128169 5560.401303 5641.031467 5739.961606 5843.097507 5917.337024 5882.954662 5483.865032 4682.342466 7616.174911 7645.702539 13927.301526 5076.993542 5131.970685 5199.538201 5275.007227 5354.184716 5466.925623 5853.942766 6939.822090 7809.552662 9470.119252 12158.396403 4646.087528 4686.834165 4739.368925 4806.940096 4901.390555 5059.343256 5364.321886 6023.498132 5640.587296 5468.136182 11647.304410 4262.167960 4295.704811 4342.063517 4409.467103 4516.732250 4701.096059 5024.489759 5764.094037 5718.967918 3514.136502 8473.925220 3919.203765 3948.364591 3990.716409 4056.718839 4169.685298 4379.455045 4796.214099 5679.953080 6653.109221 4735.670172 9267.308006 3612.196816 3636.759408 3672.502574 3728.501117 3824.970922 4006.732401 4378.858622 5207.542577 5557.408418 718.834659 3165.154636 3338.171071 3356.631406 3381.751957 3418.069566 3474.748638 3566.690688 3704.019578 3916.521855 3551.780832 216.068884 725.814946 3096.319122 3107.540447 3119.815768 3132.726806 3144.835645 3147.929608 3108.375743 2955.122281 2770.913843 1897.785925 1056.447798 2887.404558 2891.403987 2891.437222 2883.978921 2862.757311 2814.474078 2710.788927 2496.866029 2092.576400 1522.398222 1613.311535 2712.895075 2710.725358 2700.948282 2679.039111 2638.529976 2569.946779 2460.998256 2302.941355 2099.738677 1768.480161 1825.503390 2574.322316 2567.556313 2550.745905 2519.662739 2469.255468 2394.523575 2294.303959 2183.193085 2136.723998 2117.828346 2108.341150 2473.228098 2463.367406 2441.638919 2404.859933 2348.978634 2270.804629 2170.391831 2053.563195 1937.179875 1770.951402 1342.204825 2793.098276 15033.188569 13270.258028 9945.430642 11892.948397 12627.797025 10602.187762 9392.997534 8967.939749 5281.233262 5829.807458 1948.143765 -4502.107923 -11004.255948 10452.866297 4942.810669 10425.548458 6665.590193 6840.480757 10863.320966 8668.818191 5894.203236 6079.530850 3776.566812 1950.513279 3100.354574 1076.137744 -1591.001587 3662.826288 13148.109960 11377.667327 6170.710074 4879.243476 9809.920946 6705.306640 5532.500000 7768.756794 3796.561200 3213.320561 4636.300992 2227.572283 1676.020861 12792.459194 10842.630811 9344.870923 12469.423287 11555.057957 9666.763646 10080.901781 6030.074352 4025.332689 6049.964976 7166.037900 1037.086816 3515.171671 2213.285885 15445.065143 15021.502227 12025.769580 8696.636355 4590.421612 14166.702129 4206.087617 6082.364054 5285.706746 5827.020079 2212.221621 4833.571978 4508.686794 2241.337434 10297.673765 9070.305419 10309.565883 14877.986490 15136.744045 8399.349005 11853.158332 6688.886093 1976.879027 6911.271443 8859.455602 3613.367808 -1930.127711 5077.336514 16629.136098 6021.617912 13696.949158 10700.571336 5609.365096 4618.946349 12537.396174 7620.474116 3945.042447 2308.589472 7116.019435 3875.816739 -1677.485224 -2709.977915 11974.271454 15703.937441 13755.338195 9742.818825 10320.142009 10355.240874 11376.428183 6299.980471 4176.613359 6513.990573 6216.233155 6046.662789 3772.652026 12339.638736 16348.763479 15492.603072 5504.336627 7341.442971 10021.539475 8822.761539 12324.376913 4558.258732 4784.270138 11167.635434 7165.417900 3571.864898 1040.479629 -3892.696348 8429.219239 12595.261758 9622.080496 7592.319370 12479.901806 4310.372961 8032.825841 6240.751742 8035.908750 6583.802130 8784.819708 4299.692810 4252.956409 2763.583755 10723.897522 10110.253544 11830.723038 6276.613802 4619.023579 6415.028384 12661.576343 5024.952191 7772.662110 2635.861616 5117.075783 3903.453958 -2071.538069 167.259829 14648.004685 7372.939311 9251.925452 15799.390073 4523.879266 8507.119450 6500.203972 7044.662058 7211.257404 5605.298479 9317.024029 5644.065397 5096.494180 1759.271407 6307.040114 6810.853766 2132.712143 8595.836758 3524.332703 1430.570616 14009.817457 10133.897473 12538.695706 12647.214148 4160.584234 2192.505655 4831.160421 2624.387910 1476.155365 4469.536055 883.910931 5571.173421 3064.198889 4441.651867 2022.296711 2994.530022 1213.904280 1841.621924 1848.143513 1047.456118 3920.598286 4155.915091 6300.038552 6651.275703 598.358286 1262.004408 3085.650348 982.389685 1472.303307 313.027616 1235.534237 1617.521911 1882.024356 1095.672010 1731.565835 3007.740491
</DataArray>
<DataArray type="Float64" Name="Velocity" NumberOfComponents="3" format="ascii">