<VTKFile type="PolyData">
<PolyData>
<Piece NumberOfPoints="1945" NumberOfVerts="1945" NumberOfLines="0" NumberOfStrips="0" NumberOfPolys="0">
<PointData>
<DataArray type="Float64" Name="Pressure" format="ascii">
 12358.273653 11644.157720 12217.883230 11730.889322 12713.456741 12567.096820 11927.264242 12276.400837 13075.609901 13130.537297 13670.322989 12247.905131 13516.178019 12134.955972 14212.221072 12550.838999 14214.645310 12729.027235 13159.814502 13029.167872 13187.720819 12844.800482 14593.081744 13408.125696 16193.596652 14327.995682 16148.414384 14524.118518 15900.715826 14000.170289 16413.830865 15154.013339 14955.454472 14273.887666 14639.708263 12701.756731 15650.938879 13365.553526 15765.027473 14156.361484 16057.519695 14416.128762 15410.540198 13888.080366 14563.642129 13530.729755 14983.112039 12699.245955 16755.498954 14194.760160 16476.116799 14795.057927 16148.108084 14449.554473 16336.124115 14278.258817 17515.866572 16439.870031 15683.614263 15458.017509 15879.079490 15866.651751 18841.899539 18745.267027 19387.499719 19323.558091 17890.496649 17033.707579 18394.709355 18306.828807 18433.854475 18832.953993 18781.912628 18960.958989 19050.443535 19396.142933 18497.836078 19091.945371 17067.908913 18723.053335 16224.629339 17641.127765 17523.035089 19347.351453 19785.291528 22829.469011 18944.787780 19327.792191 20723.504994 22623.668594 18518.593811 22581.556799 18507.497330 21854.044697 22105.847705 26703.872903 24250.747265 25527.642785 32748.792085 39001.790068 38916.136469 47551.629390 38815.511422 38529.576544 34276.216058 32257.042131 33446.339875 33732.693160 35552.932104 41167.217546 35476.261858 39215.475437 33964.408873 34456.929901 33291.437512 33482.799249 32886.615590 32727.647105 32615.209115 32117.377928 32425.322974 32837.205922 31564.692004 32099.146020 30022.370467 29921.220020 28398.840570 28116.368548 26927.870673 26756.787515 25543.157066 25341.326862 24267.673790 23982.600561 23182.888409 22861.847911 22341.150842 22143.819442 21668.361364 21682.847626 21014.048602 21187.231774 20277.886697 20499.442246 19465.983321 19678.161524 18635.916607 18866.263457 17811.409747 18100.375151 16965.131127 17301.319443 16066.740498 16397.547478 15124.850562 15407.742403 14180.583137 14412.601264 13271.842946 13474.006639 12411.155667 12599.029094 11592.068457 11765.566479 10806.533968 10959.025394 10053.503224 10182.420052 9336.038083 9444.425355 8655.751092 8747.874670 8011.250738 8089.275115 7400.215286 7464.408568 6821.648732 6872.196601 6276.391622 6314.557482 5766.255028 5794.367032 5292.885982 5313.745543 4857.027646 4873.312626 4458.297428 4472.149553 4095.389253 4108.186611 3766.562909 3778.885447 3470.237389 3482.036586 3205.468226 3216.378309 2972.142132 2981.797645 2770.863293 2779.103028 2602.639224 2609.566086 2468.520265 2474.442591 2369.444461 2374.243775 2306.583619 2309.945104 2279.844503 2283.012378 11370.704838 9932.940810 7182.354692 6651.796537 4356.144115 1086.525576 -1396.783043 -566.190653 1654.708558 830.401882 -3832.626994 -3521.901137 -982.406297 414.241286 -3109.942627 -5920.104417 -4427.356055 -2952.800860 -4646.422218 -8529.492101 -8942.267173 -8438.093814 -8027.340487 -7626.594309 -7193.629963 -6723.921016 -6224.416200 -5706.088551 -5180.830450 -4659.962545 -4153.450520 -3669.515233 -3214.492006 -2792.856176 -2407.359254 -2059.234651 -1748.441117 -1473.918852 -1233.839092 -1025.833460 -847.194446 -695.042762 -566.460869 -458.594479 -368.725430 -294.320208 -233.058869 -182.850866 -141.855810 -108.598996 -82.778024 11206.638367 10474.917655 6856.186331 7525.632355 4720.138190 1028.594041 -826.164346 -1078.315524 2419.084294 2322.912202 -4161.349972 -4021.637022 -510.600877 2255.610525 -1748.228920 -6397.043747 -4219.270195 -2159.897499 -5269.276264 -9858.064111 -9107.645226 -8361.995705 -8013.861028 -7619.158850 -7187.050273 -6718.741493 -6221.326236 -5705.326026 -5182.310365 -4663.416966 -4158.521847 -3675.815626 -3221.641279 -2800.505449 -2415.204687 -2067.024035 -1755.975275 -1481.049329 -1240.463366 -1031.888697 -852.650641 -699.895901 -570.726558 -462.302304 -371.914153 -297.033679 -235.341744 -184.738625 -143.325138 -109.266781 -80.029297 2310.065353 2302.938614 2287.067996 2256.504453 2205.973420 2130.690601 2026.881249 1891.187039 1711.126001 1414.438264 970.776250 862.663065 900.640989 839.797359 768.883618 699.194267 630.993675 564.769815 501.195552 440.970803 384.703584 332.845939 285.671805 243.282517 205.628386 172.537888 143.748704 118.937009 97.743031 79.792033 64.710645 52.138879 41.738429 33.197904 26.235642 20.600679 16.072359 12.459014 9.595995 7.343346 5.583277 4.217602 3.165227 2.359777 1.747389 1.284716 0.937138 0.677190 0.483132 0.337370 0.223211 2283.647024 2276.564179 2259.100448 2226.766916 2174.401841 2096.922414 1989.241904 1844.752528 1653.607778 1411.448683 1158.285805 1011.256807 920.783902 841.925279 769.517301 699.543201 631.359715 565.245332 501.803930 441.702500 385.532299 333.738465 286.594351 244.204511 206.524446 173.388530 144.540220 119.660870 98.395053 80.371486 65.219393 52.580626 42.118084 33.521072 26.508229 20.828598 16.261324 12.614394 9.722729 7.445892 5.665598 4.283169 3.217040 2.400397 1.778977 1.309072 0.955751 0.691298 0.493912 0.346946 0.240564 -65.952916 -58.446758 -61.545822 -54.751581 -49.840419 -46.391863 -36.932544 -36.617642 -27.902693 -28.020680 -21.062825 -21.217518 -15.827384 -15.958819 -11.829295 -11.933521 -8.792107 -8.873213 -6.498308 -6.560854 -4.776214 -4.824109 -3.491002 -3.527437 -2.537507 -2.565047 -1.834274 -1.854959 -1.318655 -1.334092 -0.942798 -0.954247 -0.670407 -0.678845 -0.474135 -0.480316 -0.333521 -0.338021 -0.233354 -0.236610 -0.162403 -0.164744 -0.112427 -0.114101 -0.077422 -0.078611 -0.053038 -0.053878 -0.036146 -0.036736 -0.024507 -0.024919 -0.016531 -0.016818 -0.011095 -0.011292 -0.007409 -0.007545 -0.004923 -0.005015 -0.003255 -0.003318 -0.002141 -0.002184 -0.001402 -0.001431 -0.000914 -0.000933 -0.000592 -0.000605 -0.000382 -0.000391 -0.000246 -0.000251 -0.000157 -0.000161 -0.000100 -0.000102 -0.000063 -0.000065 -0.000040 -0.000041 -0.000025 -0.000026 -0.000016 -0.000016 -0.000010 -0.000010 -0.000006 -0.000006 -0.000004 -0.000004 -0.000002 -0.000002 -0.000001 -0.000001 -0.000001 -0.000001 -0.000001 -0.000001 -0.000000 -0.000000 -0.000000 -0.000000 -0.000000 -0.000000 -0.000000 -0.000000 -0.000000 -0.000000 -0.000000 -0.000000 -0.000000 -0.000000 -0.000000 -0.000000 -0.000000 -0.000000 -0.000000 -0.000000 -0.000000 -0.000000 -0.000000 -0.000000 -0.000000 -0.000000 -0.000000 -0.000000 -0.000000 -0.000000 -0.000000 -0.000000 -0.000000 -0.000000 -0.000000 -0.000000 0.000000 0.000000 0.000000 0.000000 0.000000 0.000000 0.000000 0.000000 0.000000 0.000000 0.000000 0.000000 0.000000 0.000000 0.000000 0.000000 0.000000 0.000000 0.000000 0.000000 0.000000 0.000000 0.000001 0.000001 0.000001 0.000001 0.000003 0.000003 0.000005 0.000005 0.000009 0.000009 0.000016 0.000017 0.000029 0.000030 0.000051 0.000052 0.000089 0.000091 0.000154 0.000157 0.000263 0.000269 0.000444 0.000454 0.000744 0.000759 0.001232 0.001256 0.002018 0.002057 0.003271 0.003331 0.005247 0.005340 0.008330 0.008473 0.013091 0.013304 0.020365 0.020676 0.031375 0.031795 0.047948 0.048311 0.073114 0.072099 0.114606 0.102502 0.156391 0.131633 0.175586 0.148235 11991.678812 10958.144845 11192.114605 10393.224926 9663.448353 8618.896163 9726.840764 8482.826086 8520.982829 9490.586446 5570.409165 10948.296424 10093.135126 8914.419589 8011.687967 3940.691747 9211.369375 9635.521147 5531.422036 5363.697312 6862.220733 10229.267330 13550.132328 11626.379208 13398.214947 10841.799802 10269.968370 5690.886861 9965.659214 6492.890682 3531.852616 6703.357666 12890.516116 13886.417770 11244.555601 12363.540748 13071.056253 10827.898934 10172.027091 8792.812103 7226.589167 11551.983468 9513.462325 6184.190604 13597.898971 10454.108986 14299.858138 11698.549667 12032.749678 8977.123598 10375.947817 10550.793454 6207.977620 8177.407570 8324.222930 12911.788360 11855.125861 13872.329272 14526.035658 12462.431474 9099.520207 12256.542196 10418.866162 7604.014167 6579.642693 9748.011564 9695.142269 13317.979020 12340.974821 12937.201084 9507.289304 10064.190384 9540.651929 11971.857053 9049.352703 13041.724193 9719.062068 12019.806254 11994.479551 10169.608483 12885.553759 13221.327937 6798.714595 10558.358567 10033.236177 9051.282616 9775.746569 7354.183881 10795.976305 13242.614231 12301.041666 10054.944794 14527.705475 13504.505965 9901.627525 12347.415211 10778.137361 7735.010840 6626.463819 11932.975238 14377.842551 14979.026131 12327.377288 10227.508669 12771.434587 12609.987798 10157.622441 6616.984347 6317.471697 5382.996751 14239.088079 12228.933743 14262.171745 10614.802218 14834.608039 9360.851555 10981.955699 9117.455719 6947.608995 4919.109084 4395.907005 16586.692997 15272.779084 12230.823397 14628.758170 11782.435132 8387.335105 7952.415008 10209.479697 7190.968735 8060.250098 9223.914529 17636.215194 12184.083671 13043.168202 10682.937000 12936.462962 10413.484766 8838.614021 9163.239049 6314.149285 9848.138664 5958.417285 13630.734553 14045.071397 13881.763509 15564.264648 15451.351256 11786.224520 11596.783258 9165.549121 10924.574744 2860.079679 3917.103500 16522.332000 14439.873209 16305.438477 13683.649831 13250.846398 12645.868663 8743.465175 8018.772922 3891.889197 3365.824946 1952.775938 18371.635363 16424.282051 16026.495464 9764.981412 12220.216432 8551.376985 7390.235975 9283.676401 1614.314423 1439.804939 3135.653294 16753.563980 16996.184754 13822.005530 13155.409595 12579.442034 10391.610101 5663.967724 13725.356543 1490.921350 40.660534 669.974052 19064.534138 16275.842634 13843.482900 12919.394274 5959.384691 5653.260209 7665.809973 825.404506 2245.336481 701.540447 2881.504179 16153.372560 14920.681977 15887.770724 11553.912709 9343.033533 11580.123728 7165.648243 5834.490285 5330.146047 1971.409497 3588.326297 15774.842062 16229.247577 14659.074313 12816.139932 8640.024993 8572.477643 5372.117636 2646.571459 1619.279075 3099.747525 953.943979 19466.617835 16970.971867 14373.847991 11182.070263 8104.001128 7761.637202 4447.540571 2541.575294 528.377261 5362.917964 1186.147847 16573.841300 18845.485138 16227.651702 14464.848684 10763.107087 4938.458376 3753.332394 3039.050352 8554.961823 6111.506175 1692.122588 18605.930442 19133.723827 16199.839082 12351.086578 11386.585980 8542.435375 8266.420854 4274.857549 -255.951362 6567.423028 73.390065 23387.808643 15697.286153 14244.370448 12228.341619 9581.297538 8769.446891 7824.648053 5137.945878 4666.786324 1694.471582 791.014973 17952.341635 17255.691365 17038.910170 14647.235683 12508.717718 8136.392278 6814.645758 3117.647348 1875.686638 2815.299408 3044.265163 20548.681513 17911.381580 14433.905202 16263.950835 12954.658680 6790.015099 6020.289359 10495.247877 5049.230256 2848.563827 1993.718350 17766.679457 18137.887644 12802.398411 13015.610976 11887.710191 7506.372329 6718.220992 5967.000518 5602.295087 5533.627948 2109.012291 18450.874108 18569.171447 13639.385569 11898.826267 12457.949972 14335.166557 12279.297857 6661.567666 5228.997408 1161.052689 3845.286838 22378.415036 17614.482285 14181.921867 16504.776389 13532.088811 8504.142199 10555.694150 8893.233678 9577.032585 7260.965189 4212.697679 18530.927425 21233.345155 17975.354297 12178.568819 13991.612826 10337.651670 8662.902380 4546.886714 6085.062281 3791.298692 2376.302188 19918.656819 16415.830314 14748.052136 16595.709073 11125.259239 10623.925737 11829.074927 2437.822346 3712.151611 786.479626 227.015135 21787.985415 17422.848755 14908.118464 21441.122905 18586.845811 9947.407131 10333.719541 7102.191150 1755.251196 2487.860863 911.466204 21548.000907 18873.446839 20281.279653 15090.628501 14023.193578 12390.710129 8899.985710 9930.619552 2432.308900 6737.515688 3380.759467 20946.442744 15361.711274 13231.185856 13227.325678 9792.421583 9595.093996 15653.845076 9205.797107 9.447197 4598.537671 3837.907544 26627.067126 19279.248742 11980.916971 18867.443691 17516.383844 12812.150984 10840.862370 7061.702523 5194.697722 7031.187279 1044.490233 23634.722888 18643.468297 19538.117644 17456.967433 13095.875786 11869.578835 12335.726301 8182.227311 3042.877836 3841.938667 4204.187316 20727.535821 20441.653924 18912.018494 14352.178561 13057.863760 7966.357171 10648.647768 6260.288185 6702.466908 2803.446356 2013.597682 26873.537059 17657.112806 18034.104975 12261.269428 12173.709389 13137.256679 9113.960086 7097.978633 6255.562644 1903.053638 156.036323 19357.469205 20469.239930 19891.682404 23324.673196 13604.790025 12595.848541 4813.340903 2984.074887 4283.784087 2378.055731 1027.371006 13243.468250 23755.641475 17133.848418 17282.044614 14062.762504 11190.868572 9230.383245 3870.418090 6734.351947 1101.716916 959.647730 13706.269895 17106.731922 14540.463909 15042.128605 11716.265661 8554.805786 10834.960581 9530.976396 5746.586882 5585.176930 2378.911979 14382.495236 9099.641371 4022.747812 18197.043185 12373.300830 11778.627930 6130.909539 9084.775217 6543.136300 4288.755381 1979.484601 7887.893335 13472.104862 13024.015837 21153.687839 17013.874543 10335.684031 12733.660273 8592.937708 6150.342297 73.229456 405.257513 3370.832765 174.022693 18585.328748 15791.781694 14845.462071 10466.941948 11181.797087 8430.542434 8282.178664 -1053.735881 -808.696062 8671.374133 6342.442184 18413.069411 10262.794848 13305.026138 13215.076985 9152.650524 6977.233186 3458.945968 927.635002 2629.969644 10522.186610 11646.306120 7292.022482 15336.840892 16069.371354 14378.998355 12060.513813 6730.367902 8186.969286 4086.543297 166.348851 2578.923793 3286.806287 6015.154501 18638.724952 19862.758352 12805.501316 12903.150395 7044.259254 3618.581217 2928.148106 5545.865968 7108.082321 10911.186208 11637.079514 18343.421975 7467.436185 10781.214794 9426.571113 10532.370091 8371.372632 5709.846918 6290.281196 11381.302094 7632.192056 2048.216459 13549.907183 10387.705374 20583.638578 11235.495487 5550.688082 7145.158368 -481.207748 -2788.639978 -10201.630839 3495.072411 7320.642776 7818.915499 10723.057932 22384.411674 11366.892880 4126.709310 5444.896530 7047.415037 1461.144110 6251.059509 540.329062 9949.325690 8603.307138 9603.432733 18136.627596 11568.151289 6367.432254 8936.112435 3395.668174 5531.061302 9911.958934 729.620400 9589.219895 -4853.183381 10464.065078 14186.541542 13832.132015 8468.641412 10294.772480 6591.673476 702.538914 36126.215592 4695.069231 -7568.248409 7555.652840 10455.072748 12717.487761 9823.666197 6664.242077 8770.317920 4714.525734 8521.375945 29246.659539 -16193.501870 4651.263907 13763.553504 13015.057314 16653.519163 9713.145715 8272.077327 8249.368324 6693.787597 6469.949160 24687.240325 9280.375961 648.616354 8250.283602 -2956.267242 9808.032112 11019.488547 13310.461641 12577.685694 8934.944193 3544.799453 33859.747965 10845.355683 -1304.273547 9503.316610 11486.433957 10933.391390 14795.761980 11464.953573 4079.213740 7948.046640 5189.352765 30611.220481 9958.307033 11429.554953 5773.525403 8651.933664 13064.018500 11111.196563 11656.218566 9398.985943 -3321.624817 5068.072011 29576.745221 18838.730319 6621.318044 16267.949920 9302.763778 12967.129969 12554.118053 8411.737873 11448.979808 8869.017357 7540.121924 36010.051783 40973.683981 8884.664196 -6077.241649 21930.998837 9048.267433 14161.614790 13947.469626 8184.226344 7995.114256 7164.526649 35051.432116 39512.493602 -10594.276139 -121.507757 1734.592160 16275.892080 12239.920257 9380.742380 9923.605148 6366.714851 1927.148419 28822.304123 23840.562272 -3363.619330 2919.127173 4828.663509 9016.053023 12770.566859 15919.350118 7840.927460 4494.646356 7102.641025 27085.785399 29443.674361 19658.262359 16037.803167 7009.684795 15655.886712 12368.977182 12888.351197 12117.029651 7607.409931 6022.589511 26786.678895 31656.388108 24576.899133 12831.438344 5609.976469 14308.841544 11249.217271 14202.422563 12085.457742 1384.848732 7798.184239 24942.683007 26128.761602 26822.661422 10191.588455 2586.178460 7786.555417 4330.834587 9376.318882 11040.993600 6683.227281 10617.387748 23376.380710 23850.053167 23145.535037 -1081.350760 6102.318066 5562.331079 8533.693212 4393.724385 10282.870695 8230.673013 -2253.819320 21869.027532 19650.290275 14305.077349 1204.015461 5638.282431 12424.239595 11607.168835 15269.823082 9998.379559 6141.267139 4607.927361 21550.976522 20514.449675 18623.146027 12510.055690 8059.117074 5756.413384 8030.720981 10345.815839 14333.042021 11158.488225 9801.803392 21722.363768 22006.516136 23414.612982 21742.700796 15712.023270 17150.223906 10814.230276 14418.630125 8570.996709 8085.187710 2310.693133 21649.049559 22848.453768 27106.844804 33921.588964 6575.671113 -1821.481678 15264.400585 14818.702364 8711.286051 9769.095895 -3563.539490 21001.930837 21947.573962 25127.707171 29081.714931 -5597.287502 5074.428212 1511.205089 4850.329144 11374.341239 11912.281225 3885.472202 20038.428890 20169.297819 19256.457954 13546.604790 -1211.078620 12158.472758 862.494336 5149.292000 15024.866324 8315.181639 6646.182630 19247.514656 19417.188646 18701.899370 15790.112183 8957.154800 7273.041039 17662.308241 9139.131244 14269.727800 10561.594354 10370.500693 18681.155528 19480.751753 20558.868997 23149.936536 21748.682975 3224.086657 8654.369816 10894.821036 15416.493034 9266.296425 14400.640951 18046.265262 19319.782137 21669.015634 27281.236589 35726.312480 17059.979562 2347.605707 6138.448374 8141.216126 12734.971897 25911.559105 17129.886551 18355.571674 20518.615141 26449.827572 33420.510477 -9320.883915 -3177.664129 3964.269233 6731.433533 17866.233198 10670.908079 15997.343667 16817.687906 17687.212768 18693.084717 18476.351187 2260.903865 2429.138059 -1350.291388 20589.151330 6704.194915 3534.500706 14871.988856 15408.273446 15681.262065 14885.015438 13571.099667 6878.380301 7444.055388 11589.095394 15956.550536 2146.337392 20565.859257 13883.620848 14406.274527 14920.778593 15086.056679 14420.599577 10871.477089 9710.365272 16897.595797 11195.024193 1307.595842 12501.169736 13002.937364 13607.796297 14510.255086 15971.303023 18574.802080 26690.928640 28379.664203 7668.031693 6509.888461 9193.418136 2764.112343 12151.108291 12761.566068 13737.022175 15381.041862 19050.677900 20964.957376 -9609.001418 1830.706350 6092.555410 1736.656464 7061.814765 11298.232257 11819.855122 12569.508220 13454.013910 14508.245110 13789.969079 850.529321 2016.399064 -365.979462 8907.296989 12914.877916 10467.153564 10886.098580 11423.227188 11863.943461 11681.743621 10199.042044 8899.089170 11815.216465 5804.977939 18723.568491 19414.451626 9685.484842 10041.843939 10520.195969 11064.283758 11541.809583 11339.881554 11790.528516 11137.479240 5494.045905 4938.274398 14601.091676 8957.190437 9281.850233 9779.206167 10579.554194 12090.059102 15657.634462 18086.370084 6901.172969 11170.604203 7774.336423 4004.311274 8269.963887 8560.881068 9038.901725 9877.057009 11487.935723 15130.588558 15678.772705 -2621.981352 7477.487132 17463.878082 14001.482497 7613.697334 7854.021669 8246.580903 8902.426696 10018.736203 12091.744161 16638.539975 7261.839744 5884.704628 1243.104201 12057.874849 6988.270877 7168.671913 7448.277366 7868.695557 8459.434616 9189.094052 10827.026746 2955.414455 4185.641639 2027.940188 6407.831890 6399.808713 6524.260775 6702.530667 6936.832528 7189.219121 7279.036062 6907.490507 3335.466745 6817.993389 4753.592154 5643.999339 5854.636466 5935.281857 6040.112836 6159.898217 6272.595541 6378.693216 6987.916472 7278.197457 8257.590485 5246.910099 7173.993617 5356.219162 5407.171457 5465.838431 5521.276244 5560.245604 5589.203728 5793.302262 5555.223711 3000.015059 6763.345286 10495.161413 4904.814680 4938.760473 4973.255636 4997.923321 4999.434192 4970.300818 5012.979882 5696.536770 3464.728566 9447.335165 8134.672317 4498.097910 4524.797076 4551.557857 4571.406830 4575.638350 4555.245412 4509.783241 4651.017231 3102.074400 3957.591592 6790.919361 4132.012959 4157.367466 4186.016226 4216.554822 4250.740522 4296.206218 4358.718337 4454.878901 3838.209335 3565.222364 5231.291089 3801.932230 3827.733612 3860.170758 3902.529309 3966.787215 4087.235276 4358.626054 5068.676601 6116.068591 2758.283836 3653.297571 3504.018557 3528.903912 3561.070908 3604.553380 3671.922088 3797.968833 4079.110218 5003.781600 6405.358039 1158.036790 1763.370772 3236.247045 3257.610515 3283.682059 3315.407375 3356.403885 3412.946318 3478.029214 3562.815328 3247.271006 -717.766600 778.022600 2998.596899 3014.407819 3030.640275 3044.329694 3050.267324 3034.859604 2956.261562 2717.432830 2362.952344 1249.353480 135.626920 2792.459657 2802.095604 2807.997831 2804.867754 2784.170329 2730.552889 2617.109306 2408.095259 2111.591050 1622.621578 2088.705724 2619.774159 2623.859693 2621.096088 2605.667168 2569.666950 2502.730591 2393.885144 2238.874701 2048.793256 1630.384321 1853.300342 2482.410598 2482.243929 2473.059724 2449.577675 2405.557333 2334.943296 2235.767357 2120.563574 2078.631950 2027.950536 2004.624871 2382.167121 2379.072631 2365.225190 2336.526560 2287.768400 2214.496213 2115.359096 1994.331002 1875.224398 1705.230617 1190.567029 -225.739794 9055.523427 7747.204466 7282.143975 9169.630523 10588.480192 5787.463648 6012.739211 4820.663749 1591.968169 3580.133419 3250.710656 -4372.208865 -4190.763340 6775.327944 222.611882 5388.061823 4489.218349 4958.559641 6116.943081 5126.417621 4495.611428 2733.424750 2559.400795 1838.126560 1320.540588 1263.108175 -2523.784318 3195.479829 8258.865057 7355.505767 3337.086218 4043.230951 5242.575210 2245.479114 3355.272113 6200.360285 1746.838785 1082.303434 2692.110580 1540.778696 1452.807499 8562.281082 4815.871480 4832.964583 8786.603658 8126.051413 8264.373466 5705.548747 2792.575970 2746.435225 3368.439072 5383.924440 1968.897161 1182.387255 1414.184987 8049.257132 8106.037684 7555.706713 2037.260948 5966.324676 7720.250308 5608.862414 3723.542764 3931.753262 -3243.839648 3401.887309 3295.445761 2530.088930 317.126324 6881.318795 6169.824730 6493.263741 8102.304842 8827.914111 3742.587691 5777.319413 6386.291663 7913.073286 4544.236662 5504.446380 1965.918161 2529.473023 6540.272167 10269.042308 5673.851115 7292.548944 6249.823232 148.614197 5544.699470 6599.765030 4750.501076 2854.709986 3474.448970 2665.300999 3187.652993 5146.895531 5493.403315 7582.754422 8854.988596 6358.033421 7260.351622 2822.923291 6857.427579 4066.867856 3728.785222 3206.052771 -87.629050 1445.796510 8275.109261 4804.097866 2780.816597 9816.072862 9905.057612 1803.867702 2664.079739 6968.855373 4622.318774 5850.049321 3612.897698 2763.527655 6471.444949 3387.265939 86.194824 591.496624 -2117.546040 5027.331552 6810.888160 4783.058238 3873.320609 7277.243684 1090.508709 5648.120382 2220.648756 3423.318325 4129.262684 3184.834131 3385.222534 3708.042442 -4767.597171 5058.350958 6023.902578 6722.309315 3274.419349 2171.110457 4049.196192 5075.676765 2222.440147 2919.026589 2195.884845 2774.852219 2344.553637 2173.160947 773.184494 8429.925347 2188.842525 5777.820388 10440.433508 1925.173693 2512.579903 2896.215146 4293.080160 3073.801379 2903.350506 4516.224987 5365.917344 3548.477161 5137.769483 4197.140315 5289.813813 1105.864761 4949.449602 1902.463723 -2409.076329 6555.959695 5134.178707 7120.095101 6154.358953 2915.299932 2920.781637 3830.309125 1862.450064 593.021087 4108.789804 2824.251481 3624.196896 1196.153642 2651.574373 1739.785405 1708.655715 -353.328300 2312.028267 -646.491417 -24.343721 202.691567 1592.945384 4425.057331 5815.268902 2368.188074 93.745268 4002.540661 1118.109801 1654.296632 14.645216 -192.660623 547.695659 1277.663935 1581.773938 1469.630530 1920.871702
</DataArray>
<DataArray type="Float64" Name="Velocity" NumberOfComponents="3" format="ascii">